ITEM: TIMESTEP
340
ITEM: NUMBER OF ATOMS
1000
ITEM: BOX BOUNDS pp pp pp
0.0000000000000000e+00 9.4000000000000004e+00
0.0000000000000000e+00 9.4000000000000004e+00
0.0000000000000000e+00 9.4000000000000004e+00
ITEM: ATOMS id type x y z vx vy vz
1 1 4.70647 0.263443 1.1971 0.195617 1.29979 -1.17318
2 1 7.86389 2.86967 7.80563 -0.905996 0.0649236 0.246998
3 1 0.336338 3.24282 3.64114 0.7256 -0.833113 -0.490475
4 1 0.64475 8.03917 6.95096 -0.789073 -0.172543 0.415414
5 1 5.58807 2.18595 5.8233 -0.143345 0.306932 0.121406
6 1 7.08037 7.34469 5.94266 1.14621 0.321748 0.748889
7 1 1.10298 8.53924 0.915267 0.783803 -1.2151 -0.120036
8 1 2.25744 2.25415 6.18617 -0.312783 0.196939 -0.789934
9 1 1.31928 2.73489 4.77745 -0.244802 -0.827792 1.1347
10 1 2.94658 9.09916 1.64761 -0.553566 1.22465 0.308814
11 1 8.38498 6.93656 0.718869 0.200495 0.936181 -0.107639
12 1 6.97643 2.99419 2.61451 0.179306 0.458125 0.287058
13 1 8.17741 1.75444 6.18157 -0.426361 1.04898 0.413214
14 1 3.64139 6.22519 1.55889 -0.369263 -1.55 -0.503808
15 1 7.71645 3.20651 1.63071 -0.307642 -1.39108 -0.861673
16 1 1.33858 3.11214 8.50889 -0.213904 0.062421 0.245575
17 1 8.23275 4.46234 6.8365 1.04411 -1.01053 -0.178016
18 1 0.220971 3.44258 2.52518 -0.45131 -0.642039 -0.0227376
19 1 6.17378 2.97559 9.04469 -0.300791 0.00208102 -0.565065
20 1 4.28594 3.37584 7.00039 0.67143 0.881256 -0.426932
21 1 1.76432 5.11415 5.7697 -0.036051 -0.677401 0.305308
22 1 2.96035 3.41779 4.73538 0.0453443 -0.878239 0.232974
23 1 5.22087 3.60458 8.71267 -0.0670367 -0.399171 0.31186
24 1 2.3624 4.03803 8.14894 0.731197 1.35004 -0.818016
25 1 6.27664 2.83716 7.59309 -0.749387 0.0610692 -0.3786
26 1 2.13764 3.14398 5.40322 0.143286 1.17331 0.288644
27 1 8.4017 0.952925 7.74805 -1.20476 0.191874 0.256976
28 1 4.43788 6.32764 3.34137 0.668765 0.270986 -0.92123
29 1 3.06565 0.0522305 9.37367 -1.08765 0.254144 0.263783
30 1 7.39886 2.79557 4.39749 -0.172205 -0.193658 0.545885
31 1 8.65227 3.02976 1.14939 0.0274398 -0.29357 0.383326
32 1 4.30672 0.343097 5.67632 -1.31743 -1.07006 -0.216315
33 1 1.84975 7.18873 8.38863 -0.873661 -0.194783 -0.744323
34 1 3.54185 7.3051 1.56567 1.13563 0.239885 1.45726
35 1 9.23919 0.536187 6.11477 0.501339 -0.602387 -1.2603
36 1 6.49502 6.41396 1.90672 -0.998059 -0.338714 0.965651
37 1 8.58845 1.51397 9.35831 -1.41701 0.484752 0.720133
38 1 1.20724 1.62378 3.06287 1.07537 -0.611544 0.178896
39 1 0.399451 0.883092 4.29411 -0.804961 0.123783 -1.45919
40 1 2.37472 4.07895 0.51625 0.704594 -0.0723098 -0.44441
41 1 6.15909 9.3154 6.22425 0.578341 1.30869 0.116311
42 1 1.34215 1.98217 8.83399 0.659211 0.523097 -0.00396538
43 1 1.93102 2.97259 1.70316 -0.267501 0.186139 0.74102
44 1 7.31833 1.34848 5.6167 1.2712 -0.921916 0.670881
45 1 6.33464 2.28603 6.65364 0.624809 -0.153435 -0.80212
46 1 7.72156 6.55388 3.19384 -0.795326 0.513696 -0.610975
47 1 6.07732 5.6824 0.263027 1.45881 0.085751 -0.103605
48 1 7.71618 7.47647 3.76217 0.41541 0.290781 -0.769314
49 1 3.47853 4.61348 6.70872 -1.55902 0.280106 0.339994
50 1 8.62783 8.08293 3.65904 0.182841 -0.492679 -0.622333
51 1 6.27811 7.32518 2.58147 0.0598218 0.13783 0.98327
52 1 1.11408 3.58347 0.0861786 0.0577584 -0.510091 -1.07489
53 1 5.41862 2.94192 3.28664 1.03998 -0.797861 0.0298868
54 1 9.37453 6.22587 5.34913 -0.141011 0.0559832 0.833371
55 1 8.89911 5.2081 5.37602 -0.544464 0.459967 0.243861
56 1 0.113325 4.38842 5.05862 0.750307 0.301925 0.644012
57 1 0.117016 8.85387 6.445 -0.318012 0.93268 0.0461159
58 1 5.10681 4.01972 1.1532 -0.287743 0.390828 0.951488
59 1 0.41147 7.42519 4.75769 1.02139 -0.217379 -1.10398
60 1 0.413285 5.38644 0.47755 0.416184 -0.0744253 -0.581626
61 1 5.57616 9.06093 8.72087 1.12814 -0.368727 -0.673697
62 1 0.436063 0.178382 1.4696 0.254936 -0.588561 -0.874245
63 1 7.32941 7.04335 7.63579 -0.494336 0.513564 -1.40099
64 1 3.38513 5.38366 8.97169 1.30952 0.840372 0.287974
65 1 2.33728 2.46354 8.77773 -0.0478519 -0.813454 -0.140153
66 1 6.35648 4.82989 9.07614 -0.827229 0.712486 -0.308813
67 1 6.34672 5.44351 2.33294 1.68003 -0.268701 -0.0197456
68 1 4.19622 5.13188 0.18402 -0.580847 -0.586758 -0.702486
69 1 2.52555 2.92147 0.636587 -0.651067 -0.733601 0.0826168
70 1 0.195972 1.52514 3.43006 -1.1083 0.559669 -1.06128
71 1 7.27373 5.92582 1.23067 0.396353 -0.0107838 0.30005
72 1 7.12263 4.95019 1.67602 -1.48544 -0.0482146 0.0827119
73 1 2.11291 8.53392 1.25481 0.781808 0.148621 -0.461463
74 1 4.70706 5.12129 7.74659 -0.690482 -0.782363 -1.01065
75 1 8.28964 9.21421 5.00337 0.815027 0.934191 0.0633358
76 1 6.77363 7.93392 3.33312 -0.842284 0.562584 -0.862759
77 1 4.72878 3.9599 7.83827 -0.483196 0.207005 -0.562384
78 1 2.40349 4.84893 9.07311 -0.614783 0.225662 0.412861
79 1 7.76111 7.79755 2.74869 -0.683023 -0.444229 -0.98775
80 1 0.0634644 6.57188 2.83735 0.229735 -0.734306 -0.989803
81 1 5.89209 0.355465 2.63693 -0.581743 -1.42862 0.0939504
82 1 9.28879 3.10942 7.42509 -0.385204 -0.36863 1.2831
83 1 3.43186 8.5579 4.37127 0.866491 -0.595882 0.0816319
84 1 0.745618 4.81217 7.38416 0.103317 0.95884 0.418837
85 1 2.18739 2.20474 3.15983 0.166796 -0.11158 -0.0662952
86 1 3.32485 4.37823 8.67702 -1.06486 -0.466979 -0.607531
87 1 9.05847 4.46769 2.2392 -1.132 -0.109519 0.568679
88 1 0.654731 1.78147 2.1387 0.813086 0.282061 0.455688
89 1 4.38739 2.18084 1.81922 0.412538 -0.0131429 0.651011
90 1 7.25638 7.02489 2.2825 0.512994 -0.0248741 0.809928
91 1 4.42592 2.57249 3.45258 -0.0324591 0.247634 0.258163
92 1 0.663656 1.19067 8.62505 -0.262531 -0.57927 -0.0482123
93 1 3.86622 5.95125 2.53909 0.826463 0.0143896 0.698056
94 1 4.89889 8.49145 0.996405 0.20983 1.27726 -0.772581
95 1 6.2236 6.01929 4.17641 1.04333 0.866978 0.9285
96 1 3.97685 8.59268 7.58098 -1.0219 -1.22437 0.128413
97 1 5.52596 4.61425 2.86109 1.11826 0.270494 -0.170471
98 1 8.47747 8.69082 2.80877 0.877781 0.804425 0.160682
99 1 1.04682 9.37347 2.87952 -0.286165 0.0479697 -0.934425
100 1 6.75595 0.129055 7.84768 0.292647 0.134843 -0.562815
101 1 8.72377 5.19105 0.919245 0.449455 -1.81236 0.0402399
102 1 7.68296 6.47573 8.57608 0.323438 0.450131 0.918359
103 1 4.84961 0.55443 2.25843 0.771159 0.200962 1.1708
104 1 8.76155 0.0686482 1.1598 1.08053 0.0589759 0.359188
105 1 7.45035 8.7688 8.20164 1.03558 0.340678 0.231594
106 1 3.88575 3.13542 7.92563 0.908673 1.2559 0.0162144
107 1 1.34076 7.08546 1.58711 -0.959671 -0.092313 0.390774
108 1 9.06805 5.44884 9.09285 -0.0172939 -0.240577 -1.66899
109 1 5.41531 1.63652 6.68789 1.42079 -1.58493 -0.421803
110 1 2.77589 7.91814 6.77216 -1.20767 -0.217769 -0.170354
111 1 2.37342 0.0873395 0.792025 0.279664 0.913794 -0.215682
112 1 1.33267 5.98933 5.17045 -0.299982 -0.811532 0.0428792
113 1 9.35454 9.02959 7.52205 0.772675 -0.284647 -0.183596
114 1 2.18945 6.37775 4.64802 -0.0899609 -0.87238 1.03791
115 1 5.92785 8.51677 6.96713 -0.603722 -0.568173 0.766994
116 1 2.28957 7.7451 2.99052 0.362692 0.214607 -0.389715
117 1 7.33914 8.26664 9.32281 -0.0667484 -0.25626 2.08646
118 1 0.499989 0.240333 8.17336 -1.17461 0.350623 -0.409867
119 1 7.6116 0.0971016 2.96789 0.042741 -0.302752 1.01677
120 1 7.41834 6.56729 0.205249 -0.0801053 -0.235167 0.510369
121 1 5.88525 5.75983 8.64003 -0.691812 -0.427497 1.73495
122 1 0.045811 8.68839 0.988748 -0.236948 0.570123 -0.66123
123 1 1.37908 2.46707 6.83879 -0.328244 -0.903128 -0.486603
124 1 3.4308 6.62206 3.27832 0.343341 -0.551646 0.348412
125 1 0.678573 2.30183 4.06538 -0.217235 0.222593 0.550422
126 1 0.342602 6.89834 6.84844 0.926515 -0.174393 0.665704
127 1 1.74475 0.147991 4.65901 -0.340224 0.104704 0.808015
128 1 4.9233 2.96668 5.45248 0.0116859 1.264 -1.21335
129 1 4.78675 4.9863 1.04061 -1.35426 -0.775432 -0.479733
130 1 8.2507 0.731159 5.74799 0.0274591 0.433892 -1.12387
131 1 9.05665 0.742922 5.04683 -1.40011 0.608268 -0.783609
132 1 6.7519 3.64241 4.22174 -0.0350578 0.530078 1.53259
133 1 3.87134 3.89951 4.30148 -1.01082 -0.771311 -0.281828
134 1 6.14228 2.41205 0.554114 -1.40006 0.0139915 0.514907
135 1 8.43308 1.63602 5.12623 -0.0391542 0.433345 0.328093
136 1 3.8904 5.86139 4.13358 0.307383 0.0643814 0.142253
137 1 2.80227 2.72012 7.73916 0.433172 0.873154 1.22286
138 1 1.45446 6.99676 5.53941 1.38975 -0.595438 -0.290933
139 1 0.744757 0.212923 5.05328 0.133325 1.16244 -2.19645
140 1 1.22689 3.85414 3.40587 0.732997 0.43519 0.478283
141 1 2.48687 3.28427 6.43897 0.369465 -0.0271692 -0.484763
142 1 3.48512 3.65744 6.22564 0.768267 0.924379 -1.2402
143 1 3.00952 6.25573 8.56001 -0.0137206 0.0572545 0.310383
144 1 9.05009 8.42205 1.93315 0.956977 0.649458 -1.30777
145 1 0.421479 6.47034 7.8305 0.118702 -0.462631 -0.886542
146 1 5.77823 9.07643 1.07365 -0.198018 -1.11725 -0.970133
147 1 1.30297 7.25793 6.53838 -0.126737 -0.545191 -0.197008
148 1 9.03458 4.49981 8.48306 0.54188 0.642458 0.712994
149 1 1.86244 6.71555 2.88786 -0.715371 0.365937 0.45075
150 1 1.02953 7.33246 7.67549 0.466347 -0.178855 0.318175
151 1 3.88066 8.32221 5.3459 0.725795 0.235029 -1.17803
152 1 4.45029 9.12737 2.83133 -1.1223 0.269959 -0.0221574
153 1 8.85997 2.79123 2.98154 -0.811496 -0.920097 -0.757015
154 1 5.95776 6.68241 7.2653 0.0241262 1.95033 -1.14124
155 1 5.29138 1.12146 5.55159 0.550501 -0.00625429 0.745307
156 1 3.86727 0.600639 2.81497 -0.620233 0.677887 -0.353426
157 1 8.47317 9.37715 8.14603 -0.54578 -0.00690929 -0.753318
158 1 0.557605 8.57733 4.95509 -0.572556 -1.18423 -0.56284
159 1 6.19303 7.696 4.18136 -0.520137 -0.255357 0.131138
160 1 9.05993 1.13303 0.898979 -0.571339 -0.221042 -0.800492
161 1 2.28318 5.11633 0.729703 -1.08997 -0.809103 0.718647
162 1 7.22451 4.5012 8.44064 -0.320957 0.749476 -0.631798
163 1 6.56914 5.22031 8.09216 -1.01345 -0.448042 0.319581
164 1 1.77815 5.66168 2.84751 0.280952 1.40475 0.629611
165 1 3.43275 1.49897 8.65577 -0.210248 0.357324 -0.0366603
166 1 8.25211 5.17038 3.9094 1.83811 -0.422294 0.403419
167 1 0.557297 8.89137 0.0927596 -0.247252 -1.83678 -0.581254
168 1 6.9197 4.95815 0.589204 -1.2282 -0.761378 -1.76369
169 1 0.147902 5.33651 8.07803 -0.097215 -0.0773204 -1.03602
170 1 2.33605 7.27159 3.98644 -0.913005 -0.494629 -0.47861
171 1 1.01948 5.20977 2.23234 0.0100283 0.551366 -0.965008
172 1 6.40036 6.54853 9.17788 1.03163 -0.281457 -0.222744
173 1 6.1483 8.93266 2.03001 0.363697 0.0507374 0.123294
174 1 2.01929 3.29891 7.3816 0.0172896 -0.100881 0.0614007
175 1 4.09736 0.0702026 0.117766 -0.44127 -0.777113 -0.655384
176 1 3.32788 7.59818 3.73137 0.29301 -0.178439 0.584612
177 1 1.07197 0.318659 9.07361 -0.884654 0.109154 -0.323586
178 1 4.18504 6.24509 6.04295 -0.043163 0.718337 -0.282527
179 1 7.13253 4.0589 9.39143 0.793217 -0.501084 -1.21599
180 1 4.54061 7.29364 6.78524 0.0208372 0.54887 0.122523
181 1 7.81906 5.56995 0.396596 0.131886 0.65179 -0.994892
182 1 5.64595 8.00418 2.04359 0.910984 -0.564281 -0.145822
183 1 4.7095 6.99197 8.70954 -0.445191 -0.337286 0.881987
184 1 7.96364 6.64478 6.78698 -0.270411 -2.07737 0.894083
185 1 8.01829 1.95993 4.21106 -0.0248576 1.26269 0.155477
186 1 7.56537 7.32076 4.96286 0.391385 0.452065 0.921521
187 1 8.12026 4.45962 1.64634 -0.0448197 -0.643705 0.171609
188 1 9.2237 6.71549 8.63186 1.08376 -0.131537 0.76122
189 1 8.04768 3.51119 4.89676 0.310064 0.488297 0.644583
190 1 8.89055 3.82275 3.28772 -0.947821 1.61386 -0.33947
191 1 6.9607 2.76054 8.40011 -1.56168 0.460232 1.57151
192 1 8.17821 5.53376 6.85558 1.09214 0.287256 0.374774
193 1 4.06348 7.1955 5.39138 -0.168644 0.0724339 -0.549206
194 1 5.16943 1.0008 7.47161 0.112466 0.585608 -0.252145
195 1 0.413267 8.17222 7.99064 1.19293 0.387737 0.317592
196 1 5.62918 6.9859 1.64242 1.22108 0.525236 -0.866544
197 1 3.93431 3.35551 5.22893 1.26922 0.195623 0.492872
198 1 0.979899 4.67572 6.33152 -0.684635 -0.0792821 -0.0339985
199 1 8.26474 5.88159 5.87404 -0.0160488 0.598589 -0.0914488
200 1 4.83664 7.91658 5.29314 -0.29561 -0.0586583 -0.241495
201 1 0.235788 3.27293 0.740896 0.581731 1.07892 -1.18472
202 1 9.02913 3.66324 4.38424 -1.03243 -1.55708 0.236328
203 1 9.23673 5.68676 6.25829 -0.676556 0.433654 -0.43629
204 1 7.04926 1.8001 4.65677 -0.876991 -0.412272 0.655791
205 1 1.24546 8.98074 6.51061 0.528874 0.765598 -0.537577
206 1 4.88318 9.11298 3.81881 -0.63586 -0.475632 -0.557653
207 1 7.29003 4.73807 7.36089 -0.612767 1.04429 0.505691
208 1 1.66004 3.89072 6.05345 -0.0175279 -0.0366665 -0.20212
209 1 6.5549 7.48478 1.49709 -0.0443413 0.093545 -0.769096
210 1 1.47122 5.26106 8.81669 0.341805 -0.123812 -0.304523
211 1 3.93228 2.26945 5.15393 -0.46631 0.838167 0.34178
212 1 3.76036 4.00031 1.91843 0.927926 -0.377234 -0.14177
213 1 4.08908 2.74939 6.11519 0.945215 0.237767 0.225399
214 1 0.759252 6.47034 0.323047 0.692204 0.979802 -0.322228
215 1 7.08268 7.31166 8.85446 0.123477 0.173253 1.57256
216 1 3.66531 2.58119 8.84136 -0.939856 0.0391018 -0.169203
217 1 5.66861 1.13244 1.9306 -0.333249 -0.955488 0.108888
218 1 0.31174 2.93806 8.37369 -0.832405 -0.260211 1.55761
219 1 4.74696 2.3414 0.840283 -0.0844297 -0.0200123 0.105053
220 1 8.74158 3.38422 8.36885 -1.40015 -0.719011 -1.18808
221 1 6.58168 2.76536 3.6132 -0.288463 0.169901 -0.52617
222 1 5.20132 5.21362 6.77141 0.740872 1.13 0.34879
223 1 8.55765 5.36592 2.00905 -0.35234 0.797609 -0.101851
224 1 5.68651 7.80438 0.960939 -1.31989 -0.629723 -0.0495982
225 1 2.80292 1.79884 3.97141 0.940131 0.281896 0.374754
226 1 8.1256 7.46758 6.0439 -0.253859 -0.232043 0.499939
227 1 2.99156 3.8373 2.6287 -0.238187 -0.424099 0.581629
228 1 8.60354 8.36451 7.8401 -0.215972 -0.442745 0.762425
229 1 3.11402 7.55834 0.362018 0.358371 -0.237641 -0.342628
230 1 3.53609 0.709656 6.63599 -0.362447 0.602141 0.0507325
231 1 3.63098 7.58085 7.34127 0.168025 -0.073657 0.251023
232 1 1.74947 8.16925 7.97066 0.274434 -0.82898 -1.10036
233 1 7.85763 7.73763 8.25689 -0.205481 0.618014 -0.172054
234 1 5.25589 2.57807 9.32871 0.630643 0.562709 -0.218094
235 1 0.834031 5.20221 4.51333 0.0224502 0.488161 -0.0372713
236 1 7.30839 5.8588 6.28843 0.773819 0.588192 -0.317436
237 1 7.6964 3.51719 6.96303 0.391887 1.53117 -0.194506
238 1 4.21983 1.89227 0.0214168 -0.380132 0.0531605 -0.758184
239 1 8.98427 4.07832 1.16603 0.319514 0.0410711 0.531864
240 1 4.64223 8.95212 4.88432 0.335117 -0.367955 -0.83847
241 1 5.45274 6.00686 3.13789 0.50072 -1.70728 0.278633
242 1 7.94487 3.35711 2.90421 -0.726455 0.218544 -1.40917
243 1 1.06674 0.789023 2.16776 -0.106857 0.83004 0.744815
244 1 7.99696 3.99023 7.89359 0.885733 0.748012 0.532924
245 1 7.11755 4.91477 2.7932 -0.151205 -0.995182 -0.171422
246 1 2.47196 6.92382 9.217 0.744803 0.639439 -0.88485
247 1 1.37067 2.06902 1.43606 -0.184225 -0.440155 -0.104983
248 1 9.30146 8.83945 8.6246 -1.08563 -0.656013 -0.472215
249 1 1.33518 6.96393 4.46876 -0.354556 0.266832 -0.95575
250 1 2.24325 9.00156 2.58736 -0.102814 1.37582 -0.00392647
251 1 2.08762 7.25785 7.32934 0.844061 0.820892 0.208574
252 1 3.67213 3.34884 3.36782 -0.797931 -0.222959 -0.41545
253 1 0.769076 6.29252 6.0553 -0.0957505 0.948251 1.17163
254 1 5.38292 1.36887 4.0626 0.9484 1.00473 0.209696
255 1 8.93433 8.18567 0.201295 0.0150288 -0.343078 -0.335499
256 1 8.9493 7.72334 8.59955 -0.983401 0.0148969 -0.823511
257 1 4.84032 0.588384 4.66 -0.121306 0.607912 -0.979476
258 1 4.30553 1.57172 2.94318 -0.0922338 1.17711 -0.00512817
259 1 2.74001 5.72538 1.42501 -0.131898 -0.724952 -0.206935
260 1 5.19248 8.62809 7.81785 -0.455314 -0.325655 -0.26479
261 1 4.99452 1.63413 8.77424 -0.760031 -0.925225 -0.280263
262 1 3.38485 4.42068 3.41153 0.742487 0.615998 -0.207781
263 1 5.37758 4.00766 5.45788 0.52861 -1.05793 0.83751
264 1 5.9203 2.76132 2.36464 0.29427 0.0708248 0.127542
265 1 7.28442 5.66851 3.77091 0.167618 -0.307765 0.178773
266 1 8.41481 6.37389 2.36471 1.08209 -0.211352 1.02131
267 1 3.62859 8.4746 9.39712 -2.34242 -2.10157 -0.297042
268 1 5.86066 3.23845 6.73824 -1.1313 0.549888 -0.843352
269 1 8.30082 6.09121 1.31202 0.155756 -1.10539 -0.21154
270 1 7.99935 3.24481 5.96888 0.712589 -0.708102 -0.294193
271 1 2.88148 0.320681 3.35035 -0.585465 0.40699 -0.528319
272 1 6.41336 4.06999 5.79843 0.648226 -0.264341 -0.599119
273 1 8.69054 6.108 3.40386 -1.11801 0.295494 0.282118
274 1 6.5871 3.3763 0.606981 -0.165451 -0.770817 -1.01887
275 1 2.81785 8.28545 7.76676 0.696042 -0.888151 0.633637
276 1 5.5249 7.28935 9.37478 -0.0484619 -0.248181 -0.42669
277 1 6.19639 4.44849 4.82348 0.852913 -0.320866 -0.391255
278 1 1.21677 4.94812 1.20253 0.251011 -0.701784 -0.983707
279 1 9.32489 7.16211 0.204675 -0.116083 -0.906196 1.0763
280 1 5.69969 0.176316 7.8136 0.0584728 -0.294188 -0.450272
281 1 5.96534 6.86155 3.49762 -0.225287 -1.1808 -0.070297
282 1 3.15639 6.65309 4.33303 1.70832 0.195576 -1.05913
283 1 8.90505 6.72078 6.16785 0.538091 0.410887 -0.720302
284 1 3.74529 0.492552 8.61759 -0.0269248 0.917445 -1.3859
285 1 4.35379 4.58338 8.60456 -0.583114 0.302575 -0.103038
286 1 2.57407 0.566355 7.13447 0.435101 -0.487056 -1.2197
287 1 8.62663 3.51948 2.10098 0.357541 -1.32878 0.0939272
288 1 3.95372 9.39123 1.90755 0.845318 -1.43366 0.913401
289 1 6.36739 4.35687 2.24463 -0.165797 0.960606 0.360636
290 1 2.27977 5.09424 3.62585 -0.578264 -0.571142 0.979467
291 1 1.43363 0.554052 7.11745 -0.313063 0.0502674 0.0595565
292 1 1.98504 5.21497 4.74517 -1.71839 0.0326878 0.407601
293 1 3.301 7.61416 4.77674 -2.01657 0.295286 -0.38228
294 1 3.84995 6.46363 7.07302 0.990255 -1.07929 1.30028
295 1 3.57626 6.04053 5.15201 -1.10105 -0.568266 -0.425064
296 1 5.56489 3.38915 4.61088 0.751296 0.391872 -1.42077
297 1 4.15058 3.55531 8.91019 -0.514525 -0.151388 1.22268
298 1 7.96829 2.27621 0.599125 -0.482744 -0.163931 -0.576226
299 1 0.627559 7.90936 1.58232 0.0431506 1.89122 0.581431
300 1 6.29334 1.57275 1.15651 0.042617 0.381134 -0.508284
301 1 0.732464 2.10069 7.8974 0.313209 -0.126673 0.413095
302 1 6.56658 8.34894 6.09933 -0.337029 1.10544 -0.48643
303 1 4.50131 4.41684 6.92997 -0.372798 -0.807945 -0.359901
304 1 6.48659 1.38135 0.124825 0.429648 0.282961 -0.202107
305 1 1.47975 4.57683 0.25704 0.394001 -0.40396 0.434197
306 1 8.69979 0.234635 6.98267 -1.25045 0.210713 -0.654159
307 1 4.65242 6.53012 1.7117 0.816306 -0.969606 0.0858371
308 1 6.0668 8.78166 3.77481 0.908768 -0.372737 -0.212488
309 1 3.69749 5.05718 4.82634 -0.00698838 -1.13019 1.90634
310 1 9.0432 2.30697 3.90864 -0.274127 0.293808 -0.264338
311 1 5.69823 2.31358 8.32474 0.280526 -0.353239 0.203385
312 1 4.09637 6.99123 2.47086 0.471397 -0.221416 0.0797114
313 1 9.00833 7.70105 1.14933 0.21152 -0.136521 -0.215497
314 1 5.5966 4.71028 8.22037 -0.608505 -0.151373 1.09759
315 1 6.00973 5.84697 6.53493 -0.415989 0.159118 -1.47313
316 1 1.45089 8.42472 3.08688 -1.38449 0.729875 -0.749921
317 1 3.75143 2.78154 0.499309 -0.0155959 -0.425431 -0.982088
318 1 0.364768 2.71811 5.27854 -0.645719 0.471299 -1.04539
319 1 7.55607 8.2494 6.49577 1.11909 1.05871 -0.893899
320 1 8.21113 2.45794 2.23287 -0.848325 0.364316 1.12916
321 1 4.64637 8.74258 5.9438 0.220249 0.858751 0.290181
322 1 0.343062 0.534376 7.08073 0.399763 0.183473 -0.154031
323 1 3.28943 5.51197 3.30912 0.742908 -0.61621 0.42717
324 1 5.47348 1.62867 0.373005 0.263004 -0.695991 -0.0649143
325 1 4.95288 1.94702 4.96011 0.43821 -0.636576 -0.148304
326 1 7.74613 0.0313744 7.40022 -0.974418 0.257806 0.415536
327 1 0.874655 7.00247 8.7942 -0.162551 0.269183 0.743207
328 1 4.59694 5.49322 1.94411 0.110207 -0.627496 0.224955
329 1 1.93212 3.49228 4.38142 -0.402216 -0.231704 0.276419
330 1 3.52253 2.59931 4.2297 -1.77938 0.691324 -0.433649
331 1 4.53153 3.79329 6.06266 -0.12301 0.389279 -1.36126
332 1 1.50644 4.14235 7.09924 0.60456 0.741832 0.689426
333 1 6.48482 6.50677 0.84804 -0.0888347 -0.0502232 0.703044
334 1 3.57861 0.170541 7.6262 0.485325 0.375536 -1.34842
335 1 3.77607 1.71786 0.999545 -1.33822 0.957191 -0.940446
336 1 0.871336 0.45205 6.11712 -0.603719 -0.213418 -0.267097
337 1 8.63859 3.44754 0.13622 0.413835 -0.110343 0.501916
338 1 5.9582 1.99758 3.26595 0.483883 0.546165 -0.377456
339 1 8.28399 8.58576 8.8647 0.649108 -0.275848 -0.0311981
340 1 2.74107 4.91092 2.59427 -0.70766 0.341393 0.889924
341 1 1.35388 1.17425 0.229883 -1.12119 -0.23111 -0.496943
342 1 3.66246 7.9367 8.39808 0.242282 -0.3727 0.783598
343 1 2.1178 3.24878 2.78643 0.289552 0.368941 -1.30673
344 1 3.15392 0.91173 4.57392 0.480019 0.515131 0.422304
345 1 6.93289 8.50755 4.26215 0.228112 -0.446156 0.231773
346 1 0.583698 5.7803 6.98272 -0.462582 -0.375065 -0.0733363
347 1 9.00844 4.12059 7.51269 0.133305 1.08758 0.999322
348 1 5.19659 3.02274 7.62525 -0.790237 0.306413 0.144021
349 1 4.00276 1.03432 1.8076 0.637464 -1.26805 -0.0546013
350 1 4.84787 3.63588 3.83216 -0.0136732 -0.668838 0.00416353
351 1 7.18317 9.1329 2.01161 -0.186723 0.729104 -1.00991
352 1 5.11807 5.19017 9.0514 -0.300892 0.296284 0.78241
353 1 1.37191 1.13527 4.65469 -0.0459119 0.457548 -0.272249
354 1 2.69801 0.563759 8.24888 0.565106 0.645666 -0.684128
355 1 8.85472 3.61864 6.54538 -0.57005 -0.199124 0.255295
356 1 0.519097 4.31322 0.652939 -0.489323 1.36976 0.399857
357 1 5.55074 3.07862 1.17129 0.0694967 -0.823715 0.385986
358 1 1.08922 8.76406 8.57639 -2.32592 -0.912195 -0.562923
359 1 3.10971 3.60906 1.2036 0.890226 -0.286784 0.251707
360 1 5.994 3.11744 5.63464 -1.29946 0.388675 -0.818257
361 1 3.49399 1.82921 2.24616 0.577872 0.562539 -1.06437
362 1 6.54251 3.35307 1.71666 0.518324 1.48205 -0.272823
363 1 8.222 7.29094 1.82491 0.209168 1.1237 0.137661
364 1 4.31731 1.20008 8.04821 1.78165 0.762395 -0.502746
365 1 1.27199 8.99089 1.89433 0.17389 0.0305659 -1.1691
366 1 6.67764 7.91242 5.10868 -0.704164 0.328198 0.300849
367 1 7.8332 0.909695 4.68008 -0.536197 0.284945 -0.127016
368 1 2.41691 7.37035 1.48422 -0.302558 0.284051 0.561118
369 1 7.73947 2.39903 5.36002 0.468799 0.764542 0.988469
370 1 4.84211 1.34467 1.25887 0.957753 0.406972 0.138983
371 1 8.28249 0.906089 2.64419 0.175311 0.181922 -0.824576
372 1 5.09871 9.31332 0.269793 0.795361 1.12729 0.754428
373 1 7.86656 0.862968 6.75463 -0.546068 -0.49007 -0.376751
374 1 6.88828 6.85613 3.9746 0.636723 1.04932 0.734028
375 1 5.14569 5.77608 5.7779 1.46743 -0.4023 -0.537934
376 1 2.54612 1.67117 7.93747 1.56582 0.920422 0.414582
377 1 2.773 5.19861 8.11258 -0.354358 0.76514 -0.837977
378 1 8.24099 0.00842236 2.06682 -0.248173 0.726819 -0.10265
379 1 9.01339 3.52244 5.46211 0.301528 -0.667452 -0.664664
380 1 8.60671 7.21553 3.00643 -0.113519 0.879711 0.196924
381 1 1.58999 5.36536 6.9561 1.13552 -0.117969 0.225021
382 1 6.6169 2.08995 2.02542 -0.852611 -0.753558 -0.046186
383 1 7.03259 2.58282 1.13995 -0.923654 -0.371293 -1.45498
384 1 7.14621 8.40945 1.22199 -1.06192 -0.0747906 0.511952
385 1 5.04019 8.93518 1.94008 -0.237499 0.447706 1.14474
386 1 0.376282 2.21481 1.08139 0.0853112 0.120254 -0.300847
387 1 7.48407 1.74504 2.56614 -0.658008 0.507487 1.37151
388 1 4.83808 5.98699 8.37001 -0.0292144 0.368595 1.29695
389 1 7.39383 4.1568 6.1666 0.145619 0.0970827 0.0699286
390 1 8.37927 4.51047 4.75206 0.688003 0.390713 0.262758
391 1 4.72183 0.923917 0.268326 -0.02232 0.269086 -0.527203
392 1 2.24238 0.884161 4.04248 0.888981 0.483718 0.346424
393 1 4.61566 0.123143 7.7317 -0.0737905 0.289597 -1.22927
394 1 9.32155 4.55897 6.16628 0.109702 -0.33355 -0.290688
395 1 8.01904 5.35497 8.77776 0.2237 0.915844 -0.977106
396 1 2.94269 1.77913 5.16185 -0.479066 0.414135 0.746374
397 1 7.07714 3.28288 5.31117 -0.511301 0.61059 0.131661
398 1 7.40861 7.00241 1.15922 1.08147 -0.0866564 0.203803
399 1 1.96681 1.56844 2.22547 0.384162 0.30065 0.311907
400 1 6.89012 8.14238 2.24662 -0.581104 0.364623 -0.64974
401 1 3.49805 1.80734 6.06484 0.420529 -0.213535 0.51379
402 1 7.37278 0.2512 5.3488 0.23792 -0.91146 0.494939
403 1 0.808066 3.02478 1.64606 -1.59975 -0.0799378 1.15024
404 1 5.17609 6.99343 2.61232 1.32479 -0.485657 -0.971027
405 1 4.12474 1.59818 6.92431 0.237871 -0.71411 1.39405
406 1 2.22275 4.20577 5.16127 0.0637452 0.548253 -0.895206
407 1 5.46517 8.35759 0.0744625 -0.607674 0.153781 0.0158248
408 1 4.6705 2.66627 8.45791 -0.228484 -0.0892824 -0.315647
409 1 2.79592 1.35967 2.94643 -0.28963 -0.338458 0.96864
410 1 0.466098 3.91576 6.89116 -1.12092 0.814953 -0.0419668
411 1 6.60102 8.96474 5.23192 -1.01969 0.122105 0.980189
412 1 5.6967 0.413501 3.70659 -0.131744 0.493077 0.476463
413 1 2.07591 7.63561 0.547585 -0.144401 0.446533 -0.629402
414 1 1.39916 7.45763 3.51138 -0.908158 -0.487301 1.12712
415 1 1.40816 3.85497 1.16326 0.869963 0.279987 0.667565
416 1 0.028524 8.77569 3.43273 1.93722 0.4064 -0.264864
417 1 1.36199 7.92448 4.9403 0.967625 -0.389916 -0.27462
418 1 3.41839 0.411844 1.01067 -0.279226 0.980375 -0.125392
419 1 7.56203 2.46645 3.34574 -0.483913 -0.583122 1.73157
420 1 0.0451852 1.80409 4.77588 0.805076 0.435323 -1.02
421 1 7.99297 8.37702 1.86906 0.668557 -1.45572 0.277628
422 1 3.09907 2.76525 5.66293 -0.489345 -0.0581068 -0.0720236
423 1 8.12179 7.52017 9.28125 0.407873 0.873485 0.552263
424 1 7.5225 8.46428 5.46991 -0.344649 -0.405242 -0.693096
425 1 1.74035 1.93057 5.28881 -0.754544 0.86746 -1.09185
426 1 9.0536 0.751933 8.64721 -1.13223 0.314205 -1.38584
427 1 6.44248 5.78865 5.56925 -0.369689 -0.452913 1.57503
428 1 3.39221 2.82293 6.88713 -0.0452693 0.530048 1.55084
429 1 4.67723 3.32371 0.462047 -0.309507 0.305369 -0.210522
430 1 2.36501 8.8005 6.23824 -0.745093 -1.05559 1.10642
431 1 9.19506 7.45628 7.55079 -0.416611 0.414418 1.0189
432 1 6.15597 0.766032 6.98949 0.286931 -0.478416 0.314402
433 1 3.73814 2.12732 7.78064 0.253142 -0.913829 -0.583603
434 1 4.70074 4.42591 2.07119 1.59841 -0.424234 1.67945
435 1 1.95874 0.656394 2.83349 0.452533 -1.54375 0.399209
436 1 2.11091 3.38767 9.16356 -0.555074 -0.422185 -0.501031
437 1 8.27731 5.00795 7.80365 -0.254762 0.262208 -0.604933
438 1 1.65177 8.94434 0.111074 -0.379853 -0.598595 0.474205
439 1 5.16291 6.24555 4.15364 -0.940854 -0.289265 -0.43412
440 1 0.552899 4.42202 2.79085 0.746495 -0.14331 -0.44427
441 1 9.15429 0.81883 1.95605 0.796932 -0.342425 1.13299
442 1 4.8668 6.97561 0.762148 0.471505 -0.968309 -1.13612
443 1 3.90439 6.80389 8.05027 -1.39182 -0.382371 -0.829081
444 1 7.82963 6.4704 4.30143 -0.398401 -0.0130788 -0.769905
445 1 4.88977 0.520445 8.68921 -0.428818 1.50678 -0.68923
446 1 7.38031 5.86413 2.26632 -0.825078 -0.46223 0.305363
447 1 1.03372 7.48953 0.543367 -0.460075 -0.751961 0.0673527
448 1 4.55669 7.73624 7.88602 -1.30409 -0.561409 -1.07298
449 1 2.29918 1.42763 8.91429 -0.0457717 -0.358241 1.01521
450 1 2.07402 9.05208 7.34313 -0.401317 0.11916 -0.209346
451 1 6.90165 0.740345 8.73608 -0.316121 0.0860058 0.132462
452 1 5.68153 6.74633 8.34984 0.651265 -0.534636 1.32659
453 1 5.46101 7.81834 8.45865 -0.915761 -0.389442 -0.187639
454 1 5.63295 6.41701 5.09436 1.33026 0.873232 -0.266154
455 1 4.17661 5.47128 6.82092 -0.0324374 0.51683 -0.615419
456 1 0.975606 6.30202 2.31579 0.822443 0.300362 0.360774
457 1 4.80187 4.28135 0.100547 -0.864755 -0.455928 -1.18584
458 1 8.52664 7.39122 4.45502 -0.309697 0.683708 1.25343
459 1 2.89236 7.07522 2.40968 -0.337246 -0.478941 -0.510793
460 1 8.37219 2.5159 8.94218 -0.378613 -0.64896 -0.419925
461 1 9.01929 4.88032 3.26175 0.244768 -1.04987 -0.796266
462 1 0.927958 6.52556 3.42855 0.659903 -0.692263 -0.123431
463 1 2.11198 0.439636 9.16913 -0.742228 -0.927877 0.47564
464 1 9.1756 6.18686 0.760795 -0.588395 -0.421641 0.293145
465 1 1.65514 8.01513 2.09633 -0.897019 -0.888764 -0.58649
466 1 7.97997 7.87818 0.907216 0.536736 0.0955553 -0.475724
467 1 5.33236 1.21213 2.9552 -1.87918 -0.0477234 0.399911
468 1 6.68809 8.93553 2.9324 -0.135124 -1.18551 -0.301706
469 1 2.41701 2.07799 1.2797 0.281084 -0.779877 0.575178
470 1 6.91266 5.32753 4.74742 -0.476401 -0.698687 0.768631
471 1 2.59084 8.52288 0.238956 -0.818351 1.1295 0.546622
472 1 2.38221 7.05502 6.26906 -0.292513 0.416938 -0.522887
473 1 8.90477 1.25618 6.83309 -0.0911506 0.0756222 -0.86632
474 1 6.65334 1.76034 8.52161 -0.210053 0.234223 -0.95342
475 1 4.43335 8.90318 8.64112 -0.204853 -0.234999 -0.655292
476 1 2.88999 5.59514 4.39823 0.515378 0.308441 -0.554433
477 1 8.37347 6.86629 7.7984 0.254496 0.815298 1.21915
478 1 5.72495 9.31653 4.65478 0.0433638 -0.994731 0.0059159
479 1 7.4027 0.756402 2.09607 1.29353 0.793494 -0.0504867
480 1 6.02084 6.80141 6.06327 0.683935 -0.928562 0.0845127
481 1 2.84876 4.48723 4.35273 0.470884 0.142549 0.418436
482 1 4.57731 6.30853 5.05848 0.523569 0.0401037 1.70808
483 1 1.09415 5.03972 3.44857 0.163287 0.515396 0.128633
484 1 0.1585 3.71579 9.07541 0.169043 -0.459174 -0.108839
485 1 6.79825 5.70438 7.20957 0.312535 0.222574 1.07869
486 1 1.73588 4.54686 2.75077 -1.48252 -0.888411 1.06661
487 1 0.533712 6.2841 4.4477 0.647802 0.0547434 0.577184
488 1 6.7047 2.2753 5.64229 1.25021 1.0947 -0.530514
489 1 6.43959 8.52553 0.501348 -0.0437887 1.29701 -1.57256
490 1 5.5038 6.00048 2.07987 -0.964844 -0.70528 0.175336
491 1 4.67225 5.28053 2.9973 1.12815 1.00225 -0.22701
492 1 1.52107 8.94717 5.48673 0.921748 -0.358868 -0.290625
493 1 7.96219 4.51797 0.577464 0.582662 -0.487067 0.0253101
494 1 4.39474 4.16041 3.04287 -1.58006 -1.14853 0.482727
495 1 3.13807 8.2085 1.14045 0.265884 -0.497784 -1.46238
496 1 2.59059 0.00193328 5.39088 -0.0422249 -0.678032 0.428039
497 1 6.39061 7.56855 6.78075 0.525565 0.00460309 -0.379743
498 1 2.62721 1.08841 0.480834 -0.150572 0.315232 -0.200517
499 1 3.61329 3.00196 2.33529 -0.224776 -0.313575 0.130312
500 1 6.67154 6.3371 8.11388 0.740528 -0.576891 -0.468438
501 1 5.91023 4.24819 3.80668 0.142958 0.173676 -0.559671
502 1 7.90266 4.07178 3.91214 -0.182341 -1.09161 -0.286825
503 1 3.37953 1.15733 7.59969 -0.385918 -0.83929 0.540302
504 1 2.95259 0.505432 2.31051 0.995278 -0.699367 0.214101
505 1 7.66811 3.28456 0.519876 0.385133 0.863011 -1.36784
506 1 5.57551 5.7655 7.61281 0.141665 -0.359096 -1.12703
507 1 5.47903 7.63398 7.36164 -0.727686 -0.523361 -1.0971
508 1 0.750403 8.13627 4.00896 -0.226693 -1.29688 -0.904854
509 1 3.32545 2.58699 1.43453 0.39543 0.0272018 1.25324
510 1 5.66319 4.7668 0.498813 0.0882389 0.268493 0.521644
511 1 6.09051 1.7053 7.52681 -0.15251 1.12757 0.0501482
512 1 1.97339 6.31079 1.86098 1.02252 -0.0350373 -1.01869
513 1 4.70713 7.60626 1.63386 -1.37986 -0.233577 -0.0498938
514 1 8.03171 5.45918 2.9492 -0.922357 0.651702 0.219641