ITEM: TIMESTEP
442
ITEM: NUMBER OF ATOMS
1000
ITEM: BOX BOUNDS pp pp pp
0.0000000000000000e+00 9.4000000000000004e+00
0.0000000000000000e+00 9.4000000000000004e+00
0.0000000000000000e+00 9.4000000000000004e+00
ITEM: ATOMS id type x y z vx vy vz
1 1 4.71261 0.284334 1.19854 0.195617 1.29979 -1.17318
2 1 7.87569 2.86615 7.80974 -0.905996 0.0649236 0.246998
3 1 0.349875 3.22903 3.64738 0.7256 -0.833113 -0.490475
4 1 0.647079 8.02547 6.95389 -0.789073 -0.172543 0.415414
5 1 5.57741 2.18843 5.83238 -0.143345 0.306932 0.121406
6 1 7.08965 7.33697 5.92961 1.14621 0.321748 0.748889
7 1 1.09167 8.52603 0.921397 0.783803 -1.2151 -0.120036
8 1 2.27063 2.26953 6.21002 -0.312783 0.196939 -0.789934
9 1 1.33108 2.73217 4.79437 -0.244802 -0.827792 1.1347
10 1 2.95523 9.09849 1.63975 -0.553566 1.22465 0.308814
11 1 8.39587 6.95815 0.69871 0.200495 0.936181 -0.107639
12 1 6.96386 2.98184 2.61745 0.179306 0.458125 0.287058
13 1 8.17465 1.75028 6.19406 -0.426361 1.04898 0.413214
14 1 3.65675 6.23524 1.55141 -0.369263 -1.55 -0.503808
15 1 7.73865 3.19227 1.58529 -0.307642 -1.39108 -0.861673
16 1 1.35689 3.12705 8.51496 -0.213904 0.062421 0.245575
17 1 8.2599 4.45227 6.8563 1.04411 -1.01053 -0.178016
18 1 0.224589 3.44377 2.53168 -0.45131 -0.642039 -0.0227376
19 1 6.19423 3.01261 9.04465 -0.300791 0.00208102 -0.565065
20 1 4.27031 3.37825 6.99014 0.67143 0.881256 -0.426932
21 1 1.80234 5.08973 5.7471 -0.036051 -0.677401 0.305308
22 1 2.95473 3.42239 4.72151 0.0453443 -0.878239 0.232974
23 1 5.21783 3.61808 8.70335 -0.0670367 -0.399171 0.31186
24 1 2.37326 3.9843 7.99995 0.731197 1.35004 -0.818016
25 1 6.30248 2.85668 7.61051 -0.749387 0.0610692 -0.3786
26 1 2.14839 3.12785 5.39957 0.143286 1.17331 0.288644
27 1 8.38695 0.92675 7.75143 -1.20476 0.191874 0.256976
28 1 4.45678 6.33583 3.33246 0.668765 0.270986 -0.92123
29 1 3.07151 0.0703959 9.37647 -1.08765 0.254144 0.263783
30 1 7.39556 2.78614 4.41256 -0.172205 -0.193658 0.545885
31 1 8.68717 3.02671 1.15163 0.0274398 -0.29357 0.383326
32 1 4.30594 0.357776 5.67655 -1.31743 -1.07006 -0.216315
33 1 1.88749 7.16524 8.35183 -0.873661 -0.194783 -0.744323
34 1 3.52081 7.30772 1.56556 1.13563 0.239885 1.45726
35 1 9.24019 0.527369 6.11839 0.501339 -0.602387 -1.2603
36 1 6.55016 6.44004 1.94168 -0.998059 -0.338714 0.965651
37 1 8.6118 1.50834 9.32925 -1.41701 0.484752 0.720133
38 1 1.22733 1.60726 3.04951 1.07537 -0.611544 0.178896
39 1 0.404598 0.894292 4.30721 -0.804961 0.123783 -1.45919
40 1 2.34343 4.10637 0.506518 0.704594 -0.0723098 -0.44441
41 1 6.14405 9.29894 6.21925 0.578341 1.30869 0.116311
42 1 1.31301 1.98322 8.8346 0.659211 0.523097 -0.00396538
43 1 1.9307 2.9778 1.68752 -0.267501 0.186139 0.74102
44 1 7.31589 1.3432 5.6375 1.2712 -0.921916 0.670881
45 1 6.33209 2.28592 6.66405 0.624809 -0.153435 -0.80212
46 1 7.71197 6.50811 3.19894 -0.795326 0.513696 -0.610975
47 1 6.06832 5.68802 0.276461 1.45881 0.085751 -0.103605
48 1 7.71331 7.45451 3.69743 0.41541 0.290781 -0.769314
49 1 3.49616 4.62088 6.67448 -1.55902 0.280106 0.339994
50 1 8.61292 8.04932 3.61851 0.182841 -0.492679 -0.622333
51 1 6.28894 7.33888 2.56785 0.0598218 0.13783 0.98327
52 1 1.13534 3.60895 0.0744661 0.0577584 -0.510091 -1.07489
53 1 5.4128 2.9461 3.29776 1.03998 -0.797861 0.0298868
54 1 9.37065 6.23822 5.34914 -0.141011 0.0559832 0.833371
55 1 8.90215 5.20455 5.37975 -0.544464 0.459967 0.243861
56 1 0.112694 4.38572 5.03998 0.750307 0.301925 0.644012
57 1 0.113953 8.84948 6.45034 -0.318012 0.93268 0.0461159
58 1 5.12273 4.04871 1.1477 -0.287743 0.390828 0.951488
59 1 0.410043 7.40917 4.74519 1.02139 -0.217379 -1.10398
60 1 0.390154 5.39601 0.446455 0.416184 -0.0744253 -0.581626
61 1 5.56703 9.06915 8.71652 1.12814 -0.368727 -0.673697
62 1 0.397159 0.20424 1.46938 0.254936 -0.588561 -0.874245
63 1 7.32851 7.0243 7.62869 -0.494336 0.513564 -1.40099
64 1 3.38299 5.37861 8.98537 1.30952 0.840372 0.287974
65 1 2.32894 2.45279 8.76281 -0.0478519 -0.813454 -0.140153
66 1 6.34213 4.84639 9.07708 -0.827229 0.712486 -0.308813
67 1 6.37232 5.44174 2.32926 1.68003 -0.268701 -0.0197456
68 1 4.19082 5.13489 0.201195 -0.580847 -0.586758 -0.702486
69 1 2.5452 2.90775 0.661613 -0.651067 -0.733601 0.0826168
70 1 0.220528 1.52361 3.4309 -1.1083 0.559669 -1.06128
71 1 7.28018 5.91323 1.25952 0.396353 -0.0107838 0.30005
72 1 7.13038 4.92968 1.67059 -1.48544 -0.0482146 0.0827119
73 1 2.10898 8.5575 1.24206 0.781808 0.148621 -0.461463
74 1 4.68404 5.12523 7.72265 -0.690482 -0.782363 -1.01065
75 1 8.28445 9.22261 5.02 0.815027 0.934191 0.0633358
76 1 6.76036 7.91786 3.34123 -0.842284 0.562584 -0.862759
77 1 4.71215 3.96644 7.83452 -0.483196 0.207005 -0.562384
78 1 2.42945 4.8705 9.10934 -0.614783 0.225662 0.412861
79 1 7.93817 7.86213 2.68744 -0.683023 -0.444229 -0.98775
80 1 0.0798716 6.53746 2.85364 0.229735 -0.734306 -0.989803
81 1 5.87977 0.353459 2.62673 -0.581743 -1.42862 0.0939504
82 1 9.29719 3.07728 7.41268 -0.385204 -0.36863 1.2831
83 1 3.44398 8.57147 4.37716 0.866491 -0.595882 0.0816319
84 1 0.757796 4.79034 7.38408 0.103317 0.95884 0.418837
85 1 2.19859 2.21262 3.15054 0.166796 -0.11158 -0.0662952
86 1 3.28661 4.3698 8.67137 -1.06486 -0.466979 -0.607531
87 1 9.05348 4.46625 2.23457 -1.132 -0.109519 0.568679
88 1 0.651947 1.78118 2.13229 0.813086 0.282061 0.455688
89 1 4.38967 2.21432 1.81031 0.412538 -0.0131429 0.651011
90 1 7.30855 7.0794 2.33747 0.512994 -0.0248741 0.809928
91 1 4.41506 2.57046 3.45382 -0.0324591 0.247634 0.258163
92 1 0.650708 1.17048 8.63236 -0.262531 -0.57927 -0.0482123
93 1 3.87998 5.97072 2.53103 0.826463 0.0143896 0.698056
94 1 4.90688 8.49809 0.997324 0.20983 1.27726 -0.772581
95 1 6.22419 6.01006 4.15106 1.04333 0.866978 0.9285
96 1 3.9726 8.59277 7.57129 -1.0219 -1.22437 0.128413
97 1 5.52992 4.61171 2.86315 1.11826 0.270494 -0.170471
98 1 8.48675 8.77682 2.8574 0.877781 0.804425 0.160682
99 1 1.04967 9.38624 2.87503 -0.286165 0.0479697 -0.934425
100 1 6.74247 0.125525 7.85156 0.292647 0.134843 -0.562815
101 1 8.72615 5.24883 0.838386 0.449455 -1.81236 0.0402399
102 1 7.70506 6.49014 8.60363 0.323438 0.450131 0.918359
103 1 4.84261 0.566059 2.26019 0.771159 0.200962 1.1708
104 1 8.72117 0.0478856 1.17807 1.08053 0.0589759 0.359188
105 1 7.42311 8.76872 8.2109 1.03558 0.340678 0.231594
106 1 3.8611 3.14715 7.91729 0.908673 1.2559 0.0162144
107 1 1.36235 7.12325 1.62352 -0.959671 -0.092313 0.390774
108 1 9.03584 5.359 9.04915 -0.0172939 -0.240577 -1.66899
109 1 5.40909 1.64974 6.70355 1.42079 -1.58493 -0.421803
110 1 2.78371 7.91577 6.77161 -1.20767 -0.217769 -0.170354
111 1 2.37356 0.0993987 0.789665 0.279664 0.913794 -0.215682
112 1 1.35197 5.97784 5.16235 -0.299982 -0.811532 0.0428792
113 1 9.34494 9.0175 7.52182 0.772675 -0.284647 -0.183596
114 1 2.20206 6.39535 4.63808 -0.0899609 -0.87238 1.03791
115 1 5.92581 8.50639 6.96363 -0.603722 -0.568173 0.766994
116 1 2.30062 7.78317 3.01305 0.362692 0.214607 -0.389715
117 1 7.32804 8.23793 9.33989 -0.0667484 -0.25626 2.08646
118 1 0.496254 0.220166 8.17495 -1.17461 0.350623 -0.409867
119 1 7.5956 0.113038 2.98432 0.042741 -0.302752 1.01677
120 1 7.38931 6.56051 0.216421 -0.0801053 -0.235167 0.510369
121 1 5.86362 5.77735 8.66005 -0.691812 -0.427497 1.73495
122 1 0.0387802 8.69781 1.01822 -0.236948 0.570123 -0.66123
123 1 1.35315 2.43196 6.83998 -0.328244 -0.903128 -0.486603
124 1 3.44906 6.63779 3.26862 0.343341 -0.551646 0.348412
125 1 0.685413 2.2849 4.11249 -0.217235 0.222593 0.550422
126 1 0.354217 6.8581 6.84533 0.926515 -0.174393 0.665704
127 1 1.73224 0.159477 4.65972 -0.340224 0.104704 0.808015
128 1 4.93141 2.97966 5.4412 0.0116859 1.264 -1.21335
129 1 4.79934 5.01213 1.04366 -1.35426 -0.775432 -0.479733
130 1 8.25046 0.723784 5.76668 0.0274591 0.433892 -1.12387
131 1 9.04679 0.741743 5.05304 -1.40011 0.608268 -0.783609
132 1 6.75301 3.63374 4.22808 -0.0350578 0.530078 1.53259
133 1 3.85412 3.92429 4.29294 -1.01082 -0.771311 -0.281828
134 1 6.07784 2.47094 0.584653 -1.40006 0.0139915 0.514907
135 1 8.42435 1.62513 5.14338 -0.0391542 0.433345 0.328093
136 1 3.89998 5.86726 4.11584 0.307383 0.0643814 0.142253
137 1 2.79902 2.72709 7.69572 0.433172 0.873154 1.22286
138 1 1.44587 6.99412 5.5323 1.38975 -0.595438 -0.290933
139 1 0.738761 0.18495 5.04457 0.133325 1.16244 -2.19645
140 1 1.2278 3.85172 3.39576 0.732997 0.43519 0.478283
141 1 2.50889 3.30877 6.41877 0.369465 -0.0271692 -0.484763
142 1 3.49393 3.66132 6.19907 0.768267 0.924379 -1.2402
143 1 3.01201 6.25781 8.56679 -0.0137206 0.0572545 0.310383
144 1 9.00867 8.39463 1.98077 0.956977 0.649458 -1.30777
145 1 0.398937 6.46398 7.86279 0.118702 -0.462631 -0.886542
146 1 5.77672 9.10178 1.07921 -0.198018 -1.11725 -0.970133
147 1 1.30197 7.24683 6.534 -0.126737 -0.545191 -0.197008
148 1 9.06848 4.4244 8.48645 0.54188 0.642458 0.712994
149 1 1.8878 6.74845 2.87717 -0.715371 0.365937 0.45075
150 1 1.02784 7.31882 7.6798 0.466347 -0.178855 0.318175
151 1 3.87373 8.31018 5.35508 0.725795 0.235029 -1.17803
152 1 4.4436 9.13131 2.83003 -1.1223 0.269959 -0.0221574
153 1 8.8722 2.77228 2.98379 -0.811496 -0.920097 -0.757015
154 1 5.95858 6.66723 7.25293 0.0241262 1.95033 -1.14124
155 1 5.2794 1.12175 5.55878 0.550501 -0.00625429 0.745307
156 1 3.85511 0.600953 2.81007 -0.620233 0.677887 -0.353426
157 1 8.45787 9.3465 8.14426 -0.54578 -0.00690929 -0.753318
158 1 0.540583 8.54922 4.9627 -0.572556 -1.18423 -0.56284
159 1 6.18911 7.70572 4.18663 -0.520137 -0.255357 0.131138
160 1 9.05069 1.11663 0.901981 -0.571339 -0.221042 -0.800492
161 1 2.25988 5.13766 0.743608 -1.08997 -0.809103 0.718647
162 1 7.23936 4.58016 8.42388 -0.320957 0.749476 -0.631798
163 1 6.48761 5.20599 8.08736 -1.01345 -0.448042 0.319581
164 1 1.75995 5.69398 2.84001 0.280952 1.40475 0.629611
165 1 3.41879 1.52016 8.65608 -0.210248 0.357324 -0.0366603
166 1 8.22781 5.13019 3.90627 1.83811 -0.422294 0.403419
167 1 0.543355 8.86489 0.100845 -0.247252 -1.83678 -0.581254
168 1 6.90526 4.94475 0.590294 -1.2282 -0.761378 -1.76369
169 1 0.132017 5.30499 8.06875 -0.097215 -0.0773204 -1.03602
170 1 2.33187 7.29129 4.00321 -0.913005 -0.494629 -0.47861
171 1 0.997774 5.22544 2.21898 0.0100283 0.551366 -0.965008
172 1 6.34805 6.57477 9.20923 1.03163 -0.281457 -0.222744
173 1 6.14744 8.91504 2.03344 0.363697 0.0507374 0.123294
174 1 1.97944 3.24275 7.31376 0.0172896 -0.100881 0.0614007
175 1 4.10513 0.0884584 0.115139 -0.44127 -0.777113 -0.655384
176 1 3.31315 7.61168 3.71971 0.29301 -0.178439 0.584612
177 1 1.06974 0.293103 9.07754 -0.884654 0.109154 -0.323586
178 1 4.18812 6.24558 6.0293 -0.043163 0.718337 -0.282527
179 1 7.12725 4.08424 9.36189 0.793217 -0.501084 -1.21599
180 1 4.5416 7.28443 6.76437 0.0208372 0.54887 0.122523
181 1 7.78392 5.56966 0.393427 0.131886 0.65179 -0.994892
182 1 5.63397 7.99896 2.03751 0.910984 -0.564281 -0.145822
183 1 4.72469 6.99363 8.67066 -0.445191 -0.337286 0.881987
184 1 7.96701 6.63593 6.79152 -0.270411 -2.07737 0.894083
185 1 8.01765 1.95071 4.23038 -0.0248576 1.26269 0.155477
186 1 7.54531 7.32462 4.92146 0.391385 0.452065 0.921521
187 1 8.11452 4.40983 1.63594 -0.0448197 -0.643705 0.171609
188 1 9.33449 6.69291 8.77479 1.08376 -0.131537 0.76122
189 1 8.04603 3.49365 4.91401 0.310064 0.488297 0.644583
190 1 8.88763 3.79736 3.30369 -0.947821 1.61386 -0.33947
191 1 7.00146 2.74141 8.43642 -1.56168 0.460232 1.57151
192 1 8.18125 5.51839 6.85257 1.09214 0.287256 0.374774
193 1 4.06305 7.18852 5.36146 -0.168644 0.0724339 -0.549206
194 1 5.15886 1.00321 7.47549 0.112466 0.585608 -0.252145
195 1 0.39341 8.16564 7.99086 1.19293 0.387737 0.317592
196 1 5.66108 6.97951 1.63345 1.22108 0.525236 -0.866544
197 1 3.93466 3.36462 5.20947 1.26922 0.195623 0.492872
198 1 0.999438 4.68084 6.32271 -0.684635 -0.0792821 -0.0339985
199 1 8.26812 5.88391 5.8709 -0.0160488 0.598589 -0.0914488
200 1 4.83352 7.91881 5.30031 -0.29561 -0.0586583 -0.241495
201 1 0.262988 3.28497 0.756782 0.581731 1.07892 -1.18472
202 1 9.0276 3.64439 4.38669 -1.03243 -1.55708 0.236328
203 1 9.24119 5.69925 6.25519 -0.676556 0.433654 -0.43629
204 1 7.04146 1.79291 4.66812 -0.876991 -0.412272 0.655791
205 1 1.24429 8.9584 6.51188 0.528874 0.765598 -0.537577
206 1 4.87563 9.10923 3.81839 -0.63586 -0.475632 -0.557653
207 1 7.33116 4.76196 7.3655 -0.612767 1.04429 0.505691
208 1 1.66529 3.88826 6.05014 -0.0175279 -0.0366665 -0.20212
209 1 6.57289 7.51428 1.51881 -0.0443413 0.093545 -0.769096
210 1 1.51565 5.26029 8.79518 0.341805 -0.123812 -0.304523
211 1 3.92676 2.27311 5.14622 -0.46631 0.838167 0.34178
212 1 3.72793 4.01852 1.92012 0.927926 -0.377234 -0.14177
213 1 4.11092 2.76335 6.09069 0.945215 0.237767 0.225399
214 1 0.753265 6.48922 0.296763 0.692204 0.979802 -0.322228
215 1 7.05208 7.29818 8.83675 0.123477 0.173253 1.57256
216 1 3.65495 2.59397 8.83591 -0.939856 0.0391018 -0.169203
217 1 5.66634 1.14554 1.92972 -0.333249 -0.955488 0.108888
218 1 0.331579 2.93957 8.37067 -0.832405 -0.260211 1.55761
219 1 4.75885 2.34663 0.824428 -0.0844297 -0.0200123 0.105053
220 1 8.75247 3.35526 8.34491 -1.40015 -0.719011 -1.18808
221 1 6.56708 2.76117 3.62289 -0.288463 0.169901 -0.52617
222 1 5.20629 5.21064 6.75731 0.740872 1.13 0.34879
223 1 8.54078 5.34419 1.93505 -0.35234 0.797609 -0.101851
224 1 5.6829 7.78919 0.9491 -1.31989 -0.629723 -0.0495982
225 1 2.80371 1.79513 3.95908 0.940131 0.281896 0.374754
226 1 8.13011 7.46666 6.04045 -0.253859 -0.232043 0.499939
227 1 2.974 3.8355 2.63299 -0.238187 -0.424099 0.581629
228 1 8.6226 8.32718 7.8461 -0.215972 -0.442745 0.762425
229 1 3.12973 7.5785 0.329147 0.358371 -0.237641 -0.342628
230 1 3.52592 0.721274 6.64577 -0.362447 0.602141 0.0507325
231 1 3.64017 7.56791 7.32982 0.168025 -0.073657 0.251023
232 1 1.76986 8.16082 7.97027 0.274434 -0.82898 -1.10036
233 1 7.81433 7.75947 8.23119 -0.205481 0.618014 -0.172054
234 1 5.25849 2.61242 9.3092 0.630643 0.562709 -0.218094
235 1 0.828021 5.19841 4.49965 0.0224502 0.488161 -0.0372713
236 1 7.31199 5.84374 6.29108 0.773819 0.588192 -0.317436
237 1 7.7114 3.527 6.97917 0.391887 1.53117 -0.194506
238 1 4.20814 1.90929 0.018474 -0.380132 0.0531605 -0.758184
239 1 8.99406 4.07381 1.17576 0.319514 0.0410711 0.531864
240 1 4.62288 8.9494 4.88204 0.335117 -0.367955 -0.83847
241 1 5.48009 6.01324 3.14006 0.50072 -1.70728 0.278633
242 1 7.94285 3.31628 2.91136 -0.726455 0.218544 -1.40917
243 1 1.07232 0.791186 2.14879 -0.106857 0.83004 0.744815
244 1 8.04148 4.03129 7.8919 0.885733 0.748012 0.532924
245 1 7.13557 4.89695 2.7913 -0.151205 -0.995182 -0.171422
246 1 2.47794 6.93712 9.21022 0.744803 0.639439 -0.88485
247 1 1.36921 2.06671 1.41668 -0.184225 -0.440155 -0.104983
248 1 9.28285 8.82578 8.63595 -1.08563 -0.656013 -0.472215
249 1 1.32977 6.949 4.462 -0.354556 0.266832 -0.95575
250 1 2.23755 8.99465 2.59697 -0.102814 1.37582 -0.00392647
251 1 2.10293 7.24602 7.30838 0.844061 0.820892 0.208574
252 1 3.66582 3.3581 3.3666 -0.797931 -0.222959 -0.41545
253 1 0.780444 6.27683 6.04473 -0.0957505 0.948251 1.17163
254 1 5.37616 1.36666 4.06926 0.9484 1.00473 0.209696
255 1 8.92241 8.18424 0.206582 0.0150288 -0.343078 -0.335499
256 1 8.93721 7.66172 8.59599 -0.983401 0.0148969 -0.823511
257 1 4.82942 0.584077 4.65983 -0.121306 0.607912 -0.979476
258 1 4.29045 1.57144 2.93267 -0.0922338 1.17711 -0.00512817
259 1 2.74495 5.75097 1.41338 -0.131898 -0.724952 -0.206935
260 1 5.18486 8.62963 7.80923 -0.455314 -0.325655 -0.26479
261 1 4.98272 1.65637 8.7616 -0.760031 -0.925225 -0.280263
262 1 3.37811 4.43163 3.39959 0.742487 0.615998 -0.207781
263 1 5.38463 4.00565 5.45483 0.52861 -1.05793 0.83751
264 1 5.90281 2.77312 2.36374 0.29427 0.0708248 0.127542
265 1 7.27956 5.65384 3.77239 0.167618 -0.307765 0.178773
266 1 8.4136 6.33309 2.36532 1.08209 -0.211352 1.02131
267 1 3.64147 8.49574 9.39824 -2.34242 -2.10157 -0.297042
268 1 5.86533 3.23994 6.74931 -1.1313 0.549888 -0.843352
269 1 8.2957 6.13039 1.30375 0.155756 -1.10539 -0.21154
270 1 8.00262 3.23354 5.98515 0.712589 -0.708102 -0.294193
271 1 2.8756 0.335207 3.35477 -0.585465 0.40699 -0.528319
272 1 6.41555 4.05951 5.81226 0.648226 -0.264341 -0.599119
273 1 8.68472 6.08276 3.41669 -1.11801 0.295494 0.282118
274 1 6.58086 3.3986 0.600299 -0.165451 -0.770817 -1.01887
275 1 2.83268 8.29892 7.75625 0.696042 -0.888151 0.633637
276 1 5.51401 7.30709 9.36593 -0.0484619 -0.248181 -0.42669
277 1 6.20053 4.43876 4.82769 0.852913 -0.320866 -0.391255
278 1 1.21459 4.96405 1.19583 0.251011 -0.701784 -0.983707
279 1 9.36025 7.21211 0.280238 -0.116083 -0.906196 1.0763
280 1 5.69148 0.178753 7.81286 0.0584728 -0.294188 -0.450272
281 1 5.98893 6.88131 3.49029 -0.225287 -1.1808 -0.070297
282 1 3.16615 6.66924 4.31429 1.70832 0.195576 -1.05913
283 1 8.90088 6.72375 6.17191 0.538091 0.410887 -0.720302
284 1 3.73733 0.510298 8.61825 -0.0269248 0.917445 -1.3859
285 1 4.32127 4.59969 8.59938 -0.583114 0.302575 -0.103038
286 1 2.56498 0.574708 7.14329 0.435101 -0.487056 -1.2197
287 1 8.62723 3.50623 2.11247 0.357541 -1.32878 0.0939272
288 1 3.95771 9.39807 1.90247 0.845318 -1.43366 0.913401
289 1 6.37153 4.35543 2.24619 -0.165797 0.960606 0.360636
290 1 2.28124 5.11213 3.60579 -0.578264 -0.571142 0.979467
291 1 1.4202 0.536037 7.11943 -0.313063 0.0502674 0.0595565
292 1 2.01259 5.20095 4.73486 -1.71839 0.0326878 0.407601
293 1 3.28784 7.62633 4.76777 -2.01657 0.295286 -0.38228
294 1 3.82398 6.47079 7.05451 0.990255 -1.07929 1.30028
295 1 3.58806 6.05432 5.13053 -1.10105 -0.568266 -0.425064
296 1 5.56569 3.38767 4.60748 0.751296 0.391872 -1.42077
297 1 4.13519 3.56409 8.92697 -0.514525 -0.151388 1.22268
298 1 7.95003 2.28264 0.618581 -0.482744 -0.163931 -0.576226
299 1 0.618194 7.94077 1.62787 0.0431506 1.89122 0.581431
300 1 6.29519 1.62073 1.15423 0.042617 0.381134 -0.508284
301 1 0.709713 2.09064 7.87513 0.313209 -0.126673 0.413095
302 1 6.55821 8.33665 6.08766 -0.337029 1.10544 -0.48643
303 1 4.50477 4.41572 6.91752 -0.372798 -0.807945 -0.359901
304 1 6.5169 1.38953 0.144862 0.429648 0.282961 -0.202107
305 1 1.46499 4.60619 0.241816 0.394001 -0.40396 0.434197
306 1 8.6855 0.218515 6.98175 -1.25045 0.210713 -0.654159
307 1 4.67203 6.53375 1.7211 0.816306 -0.969606 0.0858371
308 1 6.04529 8.77441 3.77618 0.908768 -0.372737 -0.212488
309 1 3.70288 5.06853 4.81027 -0.00698838 -1.13019 1.90634
310 1 9.0575 2.29264 3.91578 -0.274127 0.293808 -0.264338
311 1 5.71639 2.33165 8.34488 0.280526 -0.353239 0.203385
312 1 4.10269 7.01566 2.45813 0.471397 -0.221416 0.0797114
313 1 9.02696 7.71278 1.16719 0.21152 -0.136521 -0.215497
314 1 5.54009 4.69654 8.22314 -0.608505 -0.151373 1.09759
315 1 6.04739 5.82301 6.55579 -0.415989 0.159118 -1.47313
316 1 1.42914 8.43147 3.10004 -1.38449 0.729875 -0.749921
317 1 3.725 2.82138 0.479295 -0.0155959 -0.425431 -0.982088
318 1 0.370808 2.72155 5.27969 -0.645719 0.471299 -1.04539
319 1 7.54639 8.24338 6.48667 1.11909 1.05871 -0.893899
320 1 8.20769 2.45388 2.23176 -0.848325 0.364316 1.12916
321 1 4.6302 8.7556 5.94416 0.220249 0.858751 0.290181
322 1 0.331828 0.518073 7.08166 0.399763 0.183473 -0.154031
323 1 3.29678 5.52351 3.29444 0.742908 -0.61621 0.42717
324 1 5.49389 1.64314 0.330375 0.263004 -0.695991 -0.0649143
325 1 4.94538 1.94899 4.96572 0.43821 -0.636576 -0.148304
326 1 7.73017 0.0169849 7.40299 -0.974418 0.257806 0.415536
327 1 0.936099 7.02367 8.77852 -0.162551 0.269183 0.743207
328 1 4.6122 5.50472 1.94524 0.110207 -0.627496 0.224955
329 1 1.91824 3.48723 4.36634 -0.402216 -0.231704 0.276419
330 1 3.51898 2.60207 4.21945 -1.77938 0.691324 -0.433649
331 1 4.53614 3.80054 6.0511 -0.12301 0.389279 -1.36126
332 1 1.54108 4.14534 7.09478 0.60456 0.741832 0.689426
333 1 6.48807 6.50684 0.882013 -0.0888347 -0.0502232 0.703044
334 1 3.57259 0.171131 7.63097 0.485325 0.375536 -1.34842
335 1 3.76603 1.74169 1.00478 -1.33822 0.957191 -0.940446
336 1 0.871443 0.42418 6.11687 -0.603719 -0.213418 -0.267097
337 1 8.62463 3.43512 0.136348 0.413835 -0.110343 0.501916
338 1 5.94204 2.00249 3.27059 0.483883 0.546165 -0.377456
339 1 8.26499 8.55387 8.86012 0.649108 -0.275848 -0.0311981
340 1 2.74021 4.91923 2.58593 -0.70766 0.341393 0.889924
341 1 1.34438 1.17071 0.225921 -1.12119 -0.23111 -0.496943
342 1 3.66707 7.94761 8.38992 0.242282 -0.3727 0.783598
343 1 2.10051 3.25284 2.79189 0.289552 0.368941 -1.30673
344 1 3.14173 0.925464 4.5785 0.480019 0.515131 0.422304
345 1 6.92375 8.5362 4.26062 0.228112 -0.446156 0.231773
346 1 0.587875 5.76813 6.98158 -0.462582 -0.375065 -0.0733363
347 1 9.0675 4.10338 7.50102 0.133305 1.08758 0.999322
348 1 5.20805 3.03509 7.63913 -0.790237 0.306413 0.144021
349 1 4.00114 1.0463 1.80801 0.637464 -1.26805 -0.0546013
350 1 4.82999 3.64378 3.8317 -0.0136732 -0.668838 0.00416353
351 1 7.1666 9.14782 2.02068 -0.186723 0.729104 -1.00991
352 1 5.09877 5.19646 9.05134 -0.300892 0.296284 0.78241
353 1 1.36423 1.17307 4.67718 -0.0459119 0.457548 -0.272249
354 1 2.68605 0.564665 8.2587 0.565106 0.645666 -0.684128
355 1 8.87214 3.60803 6.54663 -0.57005 -0.199124 0.255295
356 1 0.523745 4.32709 0.655809 -0.489323 1.36976 0.399857
357 1 5.52066 3.1008 1.22091 0.0694967 -0.823715 0.385986
358 1 1.08644 8.74121 8.57955 -2.32592 -0.912195 -0.562923
359 1 3.09583 3.65787 1.17546 0.890226 -0.286784 0.251707
360 1 5.99612 3.11138 5.64424 -1.29946 0.388675 -0.818257
361 1 3.49133 1.8554 2.21936 0.577872 0.562539 -1.06437
362 1 6.52372 3.37206 1.71729 0.518324 1.48205 -0.272823
363 1 8.24821 7.27695 1.8135 0.209168 1.1237 0.137661
364 1 4.31318 1.21033 8.05072 1.78165 0.762395 -0.502746
365 1 1.21487 9.01888 1.87989 0.17389 0.0305659 -1.1691
366 1 6.67251 7.91264 5.09877 -0.704164 0.328198 0.300849
367 1 7.83015 0.890866 4.69683 -0.536197 0.284945 -0.127016
368 1 2.4062 7.37199 1.49149 -0.302558 0.284051 0.561118
369 1 7.7373 2.39081 5.37411 0.468799 0.764542 0.988469
370 1 4.83961 1.36094 1.25576 0.957753 0.406972 0.138983
371 1 8.25089 0.931188 2.67041 0.175311 0.181922 -0.824576
372 1 5.10465 9.33726 0.274025 0.795361 1.12729 0.754428
373 1 7.8477 0.853351 6.76312 -0.546068 -0.49007 -0.376751
374 1 6.88447 6.86558 4.01503 0.636723 1.04932 0.734028
375 1 5.15953 5.76881 5.76682 1.46743 -0.4023 -0.537934
376 1 2.53327 1.67747 7.94188 1.56582 0.920422 0.414582
377 1 2.78256 5.1955 8.11249 -0.354358 0.76514 -0.837977
378 1 8.21971 0.0468695 2.094 -0.248173 0.726819 -0.10265
379 1 9.01463 3.52145 5.46282 0.301528 -0.667452 -0.664664
380 1 8.61543 7.14508 3.0209 -0.113519 0.879711 0.196924
381 1 1.60142 5.3694 6.93903 1.13552 -0.117969 0.225021
382 1 6.6106 2.10043 2.04243 -0.852611 -0.753558 -0.046186
383 1 6.99998 2.58833 1.1435 -0.923654 -0.371293 -1.45498
384 1 7.123 8.40304 1.21819 -1.06192 -0.0747906 0.511952
385 1 5.03686 8.94591 1.93978 -0.237499 0.447706 1.14474
386 1 0.361484 2.21619 1.08139 0.0853112 0.120254 -0.300847
387 1 7.47452 1.75371 2.5755 -0.658008 0.507487 1.37151
388 1 4.82206 5.98343 8.3555 -0.0292144 0.368595 1.29695
389 1 7.40287 4.13791 6.162 0.145619 0.0970827 0.0699286
390 1 8.38534 4.49332 4.76805 0.688003 0.390713 0.262758
391 1 4.72095 0.950332 0.270159 -0.02232 0.269086 -0.527203
392 1 2.23199 0.889833 4.05005 0.888981 0.483718 0.346424
393 1 4.6078 0.124931 7.74806 -0.0737905 0.289597 -1.22927
394 1 9.34721 4.54456 6.14619 0.109702 -0.33355 -0.290688
395 1 7.97846 5.42509 8.7484 0.2237 0.915844 -0.977106
396 1 2.93743 1.78531 5.17469 -0.479066 0.414135 0.746374
397 1 7.0728 3.26597 5.32752 -0.511301 0.61059 0.131661
398 1 7.41636 6.99678 1.17689 1.08147 -0.0866564 0.203803
399 1 1.97698 1.5687 2.2128 0.384162 0.30065 0.311907
400 1 6.96113 8.1431 2.28852 -0.581104 0.364623 -0.64974
401 1 3.49795 1.82124 6.07643 0.420529 -0.213535 0.51379
402 1 7.36868 0.247809 5.37174 0.23792 -0.91146 0.494939
403 1 0.81134 3.01526 1.65622 -1.59975 -0.0799378 1.15024
404 1 5.18674 7.00129 2.6007 1.32479 -0.485657 -0.971027
405 1 4.12983 1.59557 6.93481 0.237871 -0.71411 1.39405
406 1 2.20678 4.1726 5.14795 0.0637452 0.548253 -0.895206
407 1 5.43497 8.36863 0.0662347 -0.607674 0.153781 0.0158248
408 1 4.65525 2.6852 8.45269 -0.228484 -0.0892824 -0.315647
409 1 2.81083 1.3653 2.92592 -0.28963 -0.338458 0.96864
410 1 0.506996 3.89798 6.8651 -1.12092 0.814953 -0.0419668
411 1 6.59812 8.96928 5.22688 -1.01969 0.122105 0.980189
412 1 5.6822 0.413656 3.70173 -0.131744 0.493077 0.476463
413 1 2.0921 7.64122 0.545555 -0.144401 0.446533 -0.629402
414 1 1.40714 7.46096 3.52012 -0.908158 -0.487301 1.12712
415 1 1.40279 3.86892 1.16167 0.869963 0.279987 0.667565
416 1 9.39404 8.76798 3.46691 1.93722 0.4064 -0.264864
417 1 1.35987 7.91871 4.92929 0.967625 -0.389916 -0.27462
418 1 3.42561 0.415663 1.00416 -0.279226 0.980375 -0.125392
419 1 7.53833 2.45094 3.36941 -0.483913 -0.583122 1.73157
420 1 0.0329097 1.79954 4.80478 0.805076 0.435323 -1.02
421 1 7.98039 8.45101 1.81028 0.668557 -1.45572 0.277628
422 1 3.10993 2.77157 5.65873 -0.489345 -0.0581068 -0.0720236
423 1 8.09424 7.45996 9.22709 0.407873 0.873485 0.552263
424 1 7.51454 8.45846 5.45878 -0.344649 -0.405242 -0.693096
425 1 1.77404 1.94681 5.31153 -0.754544 0.86746 -1.09185
426 1 9.04779 0.715946 8.64348 -1.13223 0.314205 -1.38584
427 1 6.44626 5.78079 5.5718 -0.369689 -0.452913 1.57503
428 1 3.39478 2.7862 6.83568 -0.0452693 0.530048 1.55084
429 1 4.66766 3.33232 0.477928 -0.309507 0.305369 -0.210522
430 1 2.36271 8.79106 6.23266 -0.745093 -1.05559 1.10642
431 1 9.22828 7.43116 7.5396 -0.416611 0.414418 1.0189
432 1 6.13718 0.76556 6.99275 0.286931 -0.478416 0.314402
433 1 3.7357 2.13443 7.77125 0.253142 -0.913829 -0.583603
434 1 4.67716 4.4349 2.0448 1.59841 -0.424234 1.67945
435 1 1.95349 0.66351 2.83052 0.452533 -1.54375 0.399209
436 1 2.13368 3.35544 9.20525 -0.555074 -0.422185 -0.501031
437 1 8.36689 5.04588 7.83166 -0.254762 0.262208 -0.604933
438 1 1.64322 8.91562 0.114997 -0.379853 -0.598595 0.474205
439 1 5.17052 6.25083 4.144 -0.940854 -0.289265 -0.43412
440 1 0.551425 4.43095 2.79156 0.746495 -0.14331 -0.44427
441 1 9.1053 0.823037 1.97046 0.796932 -0.342425 1.13299
442 1 4.88113 6.98378 0.779304 0.471505 -0.968309 -1.13612
443 1 3.91058 6.76462 8.04153 -1.39182 -0.382371 -0.829081
444 1 7.81478 6.45145 4.30948 -0.398401 -0.0130788 -0.769905
445 1 4.8849 0.529967 8.70066 -0.428818 1.50678 -0.68923
446 1 7.39918 5.84168 2.29689 -0.825078 -0.46223 0.305363
447 1 1.04047 7.49887 0.55303 -0.460075 -0.751961 0.0673527
448 1 4.55399 7.73088 7.86649 -1.30409 -0.561409 -1.07298
449 1 2.26944 1.42024 8.91409 -0.0457717 -0.358241 1.01521
450 1 2.07013 9.0497 7.33738 -0.401317 0.11916 -0.209346
451 1 6.90278 0.726803 8.75986 -0.316121 0.0860058 0.132462
452 1 5.68381 6.73899 8.31244 0.651265 -0.534636 1.32659
453 1 5.45494 7.81792 8.44197 -0.915761 -0.389442 -0.187639
454 1 5.64052 6.41081 5.0811 1.33026 0.873232 -0.266154
455 1 4.1803 5.48036 6.80125 -0.0324374 0.51683 -0.615419
456 1 0.987979 6.32682 2.30312 0.822443 0.300362 0.360774
457 1 4.78741 4.28171 0.0850658 -0.864755 -0.455928 -1.18584
458 1 8.51044 7.39484 4.44121 -0.309697 0.683708 1.25343
459 1 2.88541 7.08558 2.42157 -0.337246 -0.478941 -0.510793
460 1 8.33949 2.5264 8.94757 -0.378613 -0.64896 -0.419925
461 1 9.01519 4.85201 3.27126 0.244768 -1.04987 -0.796266
462 1 0.954595 6.51307 3.42281 0.659903 -0.692263 -0.123431
463 1 2.10428 0.42867 9.1792 -0.742228 -0.927877 0.47564
464 1 9.2035 6.23175 0.790499 -0.588395 -0.421641 0.293145
465 1 1.63898 8.0761 2.09656 -0.897019 -0.888764 -0.58649
466 1 7.97824 7.87845 0.90289 0.536736 0.0955553 -0.475724
467 1 5.32574 1.21425 2.95667 -1.87918 -0.0477234 0.399911
468 1 6.67601 8.93921 2.9455 -0.135124 -1.18551 -0.301706
469 1 2.42182 2.06138 1.2794 0.281084 -0.779877 0.575178
470 1 6.91491 5.3128 4.75108 -0.476401 -0.698687 0.768631
471 1 2.59977 8.53419 0.220044 -0.818351 1.1295 0.546622
472 1 2.39266 7.057 6.25888 -0.292513 0.416938 -0.522887
473 1 8.8849 1.23384 6.84128 -0.0911506 0.0756222 -0.86632
474 1 6.65689 1.74116 8.52166 -0.210053 0.234223 -0.95342
475 1 4.44273 8.88886 8.65977 -0.204853 -0.234999 -0.655292
476 1 2.89704 5.61818 4.37321 0.515378 0.308441 -0.554433
477 1 8.37915 6.90768 7.82644 0.254496 0.815298 1.21915
478 1 5.73181 9.32529 4.65104 0.0433638 -0.994731 0.0059159
479 1 7.38232 0.774173 2.10525 1.29353 0.793494 -0.0504867
480 1 6.01623 6.77468 6.06372 0.683935 -0.928562 0.0845127
481 1 2.83544 4.50981 4.35049 0.470884 0.142549 0.418436
482 1 4.59121 6.30547 5.0497 0.523569 0.0401037 1.70808
483 1 1.09852 5.0587 3.43686 0.163287 0.515396 0.128633
484 1 0.164647 3.6806 9.1007 0.169043 -0.459174 -0.108839
485 1 6.84619 5.71154 7.25018 0.312535 0.222574 1.07869
486 1 1.73173 4.56281 2.73891 -1.48252 -0.888411 1.06661
487 1 0.533126 6.26143 4.44318 0.647802 0.0547434 0.577184
488 1 6.69935 2.26528 5.6516 1.25021 1.0947 -0.530514
489 1 6.41457 8.52477 0.500436 -0.0437887 1.29701 -1.57256
490 1 5.53392 6.00522 2.08066 -0.964844 -0.70528 0.175336
491 1 4.68883 5.29192 2.99089 1.12815 1.00225 -0.22701
492 1 1.51709 8.94224 5.4876 0.921748 -0.358868 -0.290625
493 1 7.96218 4.5325 0.577681 0.582662 -0.487067 0.0253101
494 1 4.40212 4.1805 3.03231 -1.58006 -1.14853 0.482727
495 1 3.1288 8.20908 1.12684 0.265884 -0.497784 -1.46238
496 1 2.59117 0.00619426 5.39664 -0.0422249 -0.678032 0.428039
497 1 6.39051 7.55694 6.76897 0.525565 0.00460309 -0.379743
498 1 2.61747 1.10002 0.4803 -0.150572 0.315232 -0.200517
499 1 3.61233 3.01295 2.33428 -0.224776 -0.313575 0.130312
500 1 6.69105 6.32436 8.14831 0.740528 -0.576891 -0.468438
501 1 5.91845 4.25121 3.80472 0.142958 0.173676 -0.559671
502 1 7.90818 4.03165 3.9402 -0.182341 -1.09161 -0.286825
503 1 3.37302 1.15697 7.61969 -0.385918 -0.83929 0.540302
504 1 2.93737 0.494596 2.31178 0.995278 -0.699367 0.214101
505 1 7.63626 3.27184 0.467361 0.385133 0.863011 -1.36784
506 1 5.57985 5.74563 7.6176 0.141665 -0.359096 -1.12703
507 1 5.47628 7.6225 7.34884 -0.727686 -0.523361 -1.0971
508 1 0.738431 8.12767 4.00553 -0.226693 -1.29688 -0.904854
509 1 3.31193 2.62908 1.42316 0.39543 0.0272018 1.25324
510 1 5.65097 4.76706 0.484976 0.0882389 0.268493 0.521644
511 1 6.08642 1.7132 7.5386 -0.15251 1.12757 0.0501482
512 1 1.98617 6.3306 1.85433 1.02252 -0.0350373 -1.01869
513 1 4.70671 7.60777 1.63809 -1.37986 -0.233577 -0.0498938
514 1 8.08918 5.40164 2.92371 -0.922357 0.651702 0.219641