ITEM: TIMESTEP
183
ITEM: NUMBER OF ATOMS
1000
ITEM: BOX BOUNDS pp pp pp
0.0000000000000000e+00 9.4000000000000004e+00
0.0000000000000000e+00 9.4000000000000004e+00
0.0000000000000000e+00 9.4000000000000004e+00
ITEM: ATOMS id type x y z vx vy vz
1 1 4.78848 0.250475 1.19435 0.195617 1.29979 -1.17318
2 1 7.94755 2.85555 7.84961 -0.905996 0.0649236 0.246998
3 1 0.314029 3.22921 3.64464 0.7256 -0.833113 -0.490475
4 1 0.644206 8.017 6.93518 -0.789073 -0.172543 0.415414
5 1 5.6042 2.17329 5.80438 -0.143345 0.306932 0.121406
6 1 7.0642 7.35752 5.98364 1.14621 0.321748 0.748889
7 1 1.18156 8.45259 0.802868 0.783803 -1.2151 -0.120036
8 1 2.29634 2.2138 6.1664 -0.312783 0.196939 -0.789934
9 1 1.2718 2.72221 4.78522 -0.244802 -0.827792 1.1347
10 1 2.96243 9.1379 1.65773 -0.553566 1.22465 0.308814
11 1 8.47022 7.02872 0.69779 0.200495 0.936181 -0.107639
12 1 6.97327 2.99294 2.60383 0.179306 0.458125 0.287058
13 1 8.18893 1.70539 6.17833 -0.426361 1.04898 0.413214
14 1 3.5412 6.33141 1.64549 -0.369263 -1.55 -0.503808
15 1 7.68831 3.24639 1.62069 -0.307642 -1.39108 -0.861673
16 1 1.37172 3.10268 8.50909 -0.213904 0.062421 0.245575
17 1 8.17444 4.45537 6.85598 1.04411 -1.01053 -0.178016
18 1 0.196918 3.45901 2.53024 -0.45131 -0.642039 -0.0227376
19 1 6.20829 3.05999 9.07638 -0.300791 0.00208102 -0.565065
20 1 4.24734 3.35901 6.98259 0.67143 0.881256 -0.426932
21 1 1.75173 5.06862 5.78263 -0.036051 -0.677401 0.305308
22 1 2.91532 3.42938 4.72833 0.0453443 -0.878239 0.232974
23 1 5.17998 3.67011 8.73929 -0.0670367 -0.399171 0.31186
24 1 2.36015 4.08822 8.26463 0.731197 1.35004 -0.818016
25 1 6.19188 2.83314 7.64633 -0.749387 0.0610692 -0.3786
26 1 2.07649 3.1276 5.3981 0.143286 1.17331 0.288644
27 1 8.48357 1.04811 7.77752 -1.20476 0.191874 0.256976
28 1 4.42719 6.34483 3.38345 0.668765 0.270986 -0.92123
29 1 3.08987 0.0695118 9.36894 -1.08765 0.254144 0.263783
30 1 7.38834 2.77675 4.35227 -0.172205 -0.193658 0.545885
31 1 8.6253 3.03649 1.14946 0.0274398 -0.29357 0.383326
32 1 4.31275 0.284895 5.64014 -1.31743 -1.07006 -0.216315
33 1 1.83333 7.17312 8.40288 -0.873661 -0.194783 -0.744323
34 1 3.66116 7.39236 1.60575 1.13563 0.239885 1.45726
35 1 9.2521 0.587878 6.11773 0.501339 -0.602387 -1.2603
36 1 6.48566 6.43172 1.93004 -0.998059 -0.338714 0.965651
37 1 8.63843 1.5073 0.0132621 -1.41701 0.484752 0.720133
38 1 1.23904 1.64471 3.06281 1.07537 -0.611544 0.178896
39 1 0.417977 0.917181 4.29888 -0.804961 0.123783 -1.45919
40 1 2.41873 4.0577 0.597515 0.704594 -0.0723098 -0.44441
41 1 6.19121 9.36237 6.22107 0.578341 1.30869 0.116311
42 1 1.38055 2.0133 8.85664 0.659211 0.523097 -0.00396538
43 1 1.89289 2.96194 1.74398 -0.267501 0.186139 0.74102
44 1 7.32871 1.36081 5.57852 1.2712 -0.921916 0.670881
45 1 6.35533 2.3032 6.62468 0.624809 -0.153435 -0.80212
46 1 7.71385 6.66894 3.19773 -0.795326 0.513696 -0.610975
47 1 6.04505 5.73156 0.293755 1.45881 0.085751 -0.103605
48 1 7.65739 7.5437 3.89906 0.41541 0.290781 -0.769314
49 1 3.44824 4.56812 6.73257 -1.55902 0.280106 0.339994
50 1 8.63118 8.01403 3.68213 0.182841 -0.492679 -0.622333
51 1 6.27466 7.32042 2.59767 0.0598218 0.13783 0.98327
52 1 1.08852 3.54499 0.106573 0.0577584 -0.510091 -1.07489
53 1 5.43091 2.96264 3.2719 1.03998 -0.797861 0.0298868
54 1 9.40245 6.23862 5.37567 -0.141011 0.0559832 0.833371
55 1 8.87395 5.22792 5.36752 -0.544464 0.459967 0.243861
56 1 0.0779045 4.38699 5.06273 0.750307 0.301925 0.644012
57 1 0.134472 8.86623 6.44561 -0.318012 0.93268 0.0461159
58 1 5.06119 4.02827 1.18589 -0.287743 0.390828 0.951488
59 1 0.430522 7.37603 4.78568 1.02139 -0.217379 -1.10398
60 1 0.390357 5.38821 0.468571 0.416184 -0.0744253 -0.581626
61 1 5.59712 9.0413 8.71639 1.12814 -0.368727 -0.673697
62 1 0.35033 0.266688 1.55429 0.254936 -0.588561 -0.874245
63 1 7.32722 7.06266 7.66195 -0.494336 0.513564 -1.40099
64 1 3.33383 5.42215 8.99314 1.30952 0.840372 0.287974
65 1 2.3232 2.56926 8.90455 -0.0478519 -0.813454 -0.140153
66 1 6.31434 4.85614 9.10041 -0.827229 0.712486 -0.308813
67 1 6.32903 5.46971 2.35075 1.68003 -0.268701 -0.0197456
68 1 4.16969 5.15213 0.183627 -0.580847 -0.586758 -0.702486
69 1 2.48722 2.95156 0.565043 -0.651067 -0.733601 0.0826168
70 1 0.230504 1.4623 3.36071 -1.1083 0.559669 -1.06128
71 1 7.27921 5.98497 1.23157 0.396353 -0.0107838 0.30005
72 1 7.12672 4.9942 1.67329 -1.48544 -0.0482146 0.0827119
73 1 2.13286 8.56339 1.30737 0.781808 0.148621 -0.461463
74 1 4.68583 5.12351 7.72876 -0.690482 -0.782363 -1.01065
75 1 8.31741 9.25549 5.02478 0.815027 0.934191 0.0633358
76 1 6.75391 7.9796 3.33191 -0.842284 0.562584 -0.862759
77 1 4.70433 3.94564 7.82496 -0.483196 0.207005 -0.562384
78 1 2.38657 4.83642 9.09893 -0.614783 0.225662 0.412861
79 1 7.71831 7.74557 2.86644 -0.683023 -0.444229 -0.98775
80 1 0.00739163 6.53061 2.85454 0.229735 -0.734306 -0.989803
81 1 5.89713 0.342987 2.60593 -0.581743 -1.42862 0.0939504
82 1 9.2893 3.1066 7.44146 -0.385204 -0.36863 1.2831
83 1 3.41772 8.55003 4.34144 0.866491 -0.595882 0.0816319
84 1 0.696857 4.7739 7.38071 0.103317 0.95884 0.418837
85 1 2.19759 2.21841 3.15992 0.166796 -0.11158 -0.0662952
86 1 3.34031 4.42297 8.69346 -1.06486 -0.466979 -0.607531
87 1 9.03643 4.49264 2.22843 -1.132 -0.109519 0.568679
88 1 0.630598 1.79263 2.15191 0.813086 0.282061 0.455688
89 1 4.40132 2.14281 1.81419 0.412538 -0.0131429 0.651011
90 1 7.25605 7.03962 2.27373 0.512994 -0.0248741 0.809928
91 1 4.44086 2.59059 3.43867 -0.0324591 0.247634 0.258163
92 1 0.720887 1.21383 8.62457 -0.262531 -0.57927 -0.0482123
93 1 3.86128 5.9554 2.57442 0.826463 0.0143896 0.698056
94 1 4.93663 8.47043 1.00066 0.20983 1.27726 -0.772581
95 1 6.23344 6.03198 4.22676 1.04333 0.866978 0.9285
96 1 3.95582 8.57684 7.59652 -1.0219 -1.22437 0.128413
97 1 5.52644 4.65257 2.87368 1.11826 0.270494 -0.170471
98 1 8.50664 8.62998 2.8336 0.877781 0.804425 0.160682
99 1 1.03654 0.0417389 2.76096 -0.286165 0.0479697 -0.934425
100 1 6.75876 0.153232 7.81974 0.292647 0.134843 -0.562815
101 1 8.70789 5.26254 0.850134 0.449455 -1.81236 0.0402399
102 1 7.68855 6.41428 8.57142 0.323438 0.450131 0.918359
103 1 4.87255 0.563039 2.23498 0.771159 0.200962 1.1708
104 1 8.72924 0.028842 1.13662 1.08053 0.0589759 0.359188
105 1 7.44513 8.78406 8.18807 1.03558 0.340678 0.231594
106 1 3.94468 3.13627 7.94063 0.908673 1.2559 0.0162144
107 1 1.52448 7.11035 1.69751 -0.959671 -0.092313 0.390774
108 1 9.04418 5.46847 9.08813 -0.0172939 -0.240577 -1.66899
109 1 5.41615 1.63786 6.67668 1.42079 -1.58493 -0.421803
110 1 2.76392 7.91034 6.75705 -1.20767 -0.217769 -0.170354
111 1 2.38036 0.0985656 0.783757 0.279664 0.913794 -0.215682
112 1 1.32836 5.95975 5.20444 -0.299982 -0.811532 0.0428792
113 1 9.36802 9.04657 7.51782 0.772675 -0.284647 -0.183596
114 1 2.19596 6.37498 4.71076 -0.0899609 -0.87238 1.03791
115 1 5.89935 8.51186 6.99531 -0.603722 -0.568173 0.766994
116 1 2.31295 7.77266 3.02816 0.362692 0.214607 -0.389715
117 1 7.31915 8.30273 9.20153 -0.0667484 -0.25626 2.08646
118 1 0.510279 0.257515 8.17659 -1.17461 0.350623 -0.409867
119 1 7.607 0.0766706 2.95931 0.042741 -0.302752 1.01677
120 1 7.40439 6.60028 0.177197 -0.0801053 -0.235167 0.510369
121 1 5.87525 5.77177 8.65854 -0.691812 -0.427497 1.73495
122 1 0.167611 8.77336 0.98395 -0.236948 0.570123 -0.66123
123 1 1.49987 2.42738 6.86977 -0.328244 -0.903128 -0.486603
124 1 3.41003 6.62211 3.29572 0.343341 -0.551646 0.348412
125 1 0.684062 2.27729 4.01658 -0.217235 0.222593 0.550422
126 1 0.334224 6.89785 6.86429 0.926515 -0.174393 0.665704
127 1 1.76479 0.132158 4.64232 -0.340224 0.104704 0.808015
128 1 4.89316 2.92635 5.46723 0.0116859 1.264 -1.21335
129 1 4.7108 4.98815 1.08667 -1.35426 -0.775432 -0.479733
130 1 8.25885 0.723802 5.73996 0.0274591 0.433892 -1.12387
131 1 9.06865 0.772895 5.04165 -1.40011 0.608268 -0.783609
132 1 6.76401 3.64861 4.20167 -0.0350578 0.530078 1.53259
133 1 3.84755 3.88476 4.30195 -1.01082 -0.771311 -0.281828
134 1 6.12349 2.44636 0.583099 -1.40006 0.0139915 0.514907
135 1 8.45751 1.6604 5.13425 -0.0391542 0.433345 0.328093
136 1 3.86975 5.8668 4.15516 0.307383 0.0643814 0.142253
137 1 2.89497 2.68803 7.91345 0.433172 0.873154 1.22286
138 1 1.50652 6.97442 5.5209 1.38975 -0.595438 -0.290933
139 1 0.772944 0.257097 5.06186 0.133325 1.16244 -2.19645
140 1 1.19721 3.84499 3.40015 0.732997 0.43519 0.478283
141 1 2.4043 3.26278 6.41205 0.369465 -0.0271692 -0.484763
142 1 3.44093 3.63529 6.19412 0.768267 0.924379 -1.2402
143 1 2.94524 6.28475 8.5877 -0.0137206 0.0572545 0.310383
144 1 8.88053 8.51312 1.7312 0.956977 0.649458 -1.30777
145 1 0.413342 6.44774 7.83396 0.118702 -0.462631 -0.886542
146 1 5.80651 9.0817 1.04336 -0.198018 -1.11725 -0.970133
147 1 1.31332 7.23309 6.5299 -0.126737 -0.545191 -0.197008
148 1 8.98589 4.51668 8.46923 0.54188 0.642458 0.712994
149 1 1.84208 6.78472 2.75273 -0.715371 0.365937 0.45075
150 1 1.00843 7.30768 7.67576 0.466347 -0.178855 0.318175
151 1 3.90513 8.33318 5.32015 0.725795 0.235029 -1.17803
152 1 4.46048 9.14358 2.80592 -1.1223 0.269959 -0.0221574
153 1 8.81862 2.78371 2.94466 -0.811496 -0.920097 -0.757015
154 1 5.92541 6.66042 7.24325 0.0241262 1.95033 -1.14124
155 1 5.32198 1.1165 5.54008 0.550501 -0.00625429 0.745307
156 1 3.8528 0.622494 2.77572 -0.620233 0.677887 -0.353426
157 1 8.50771 0.0325005 8.14277 -0.54578 -0.00690929 -0.753318
158 1 0.609893 8.62289 4.97388 -0.572556 -1.18423 -0.56284
159 1 6.1892 7.68057 4.19215 -0.520137 -0.255357 0.131138
160 1 9.096 1.06318 0.933083 -0.571339 -0.221042 -0.800492
161 1 2.29698 5.0954 0.766171 -1.08997 -0.809103 0.718647
162 1 7.22727 4.51341 8.42365 -0.320957 0.749476 -0.631798
163 1 6.52524 5.19743 8.09909 -1.01345 -0.448042 0.319581
164 1 1.69191 5.73373 2.8863 0.280952 1.40475 0.629611
165 1 3.51504 1.46653 8.59396 -0.210248 0.357324 -0.0366603
166 1 8.24973 5.15565 3.90412 1.83811 -0.422294 0.403419
167 1 0.591458 8.87854 0.0414269 -0.247252 -1.83678 -0.581254
168 1 6.88969 4.99315 0.592236 -1.2282 -0.761378 -1.76369
169 1 0.108433 5.34961 8.05883 -0.097215 -0.0773204 -1.03602
170 1 2.33103 7.23028 3.94106 -0.913005 -0.494629 -0.47861
171 1 0.99901 5.2534 2.20632 0.0100283 0.551366 -0.965008
172 1 6.39049 6.56339 9.18804 1.03163 -0.281457 -0.222744
173 1 6.1523 8.91563 1.99943 0.363697 0.0507374 0.123294
174 1 2.15977 3.35811 7.44134 0.0172896 -0.100881 0.0614007
175 1 4.13555 0.0730577 0.0875448 -0.44127 -0.777113 -0.655384
176 1 3.31073 7.61986 3.6761 0.29301 -0.178439 0.584612
177 1 1.09102 0.335142 9.06132 -0.884654 0.109154 -0.323586
178 1 4.14725 6.27454 6.05718 -0.043163 0.718337 -0.282527
179 1 7.07202 4.05232 9.36708 0.793217 -0.501084 -1.21599
180 1 4.51046 7.27993 6.76449 0.0208372 0.54887 0.122523
181 1 7.77694 5.60333 0.390735 0.131886 0.65179 -0.994892
182 1 5.68512 7.9678 1.99039 0.910984 -0.564281 -0.145822
183 1 4.70188 6.96948 8.72921 -0.445191 -0.337286 0.881987
184 1 7.96191 6.66128 6.79586 -0.270411 -2.07737 0.894083
185 1 8.03249 1.94632 4.19982 -0.0248576 1.26269 0.155477
186 1 7.58502 7.33595 5.04776 0.391385 0.452065 0.921521
187 1 8.10873 4.47379 1.61255 -0.0448197 -0.643705 0.171609
188 1 9.16331 6.70165 8.58847 1.08376 -0.131537 0.76122
189 1 8.02769 3.49891 4.85904 0.310064 0.488297 0.644583
190 1 8.87375 3.80664 3.2899 -0.947821 1.61386 -0.33947
191 1 6.92964 2.67309 8.41539 -1.56168 0.460232 1.57151
192 1 8.15529 5.53582 6.8686 1.09214 0.287256 0.374774
193 1 4.05527 7.21902 5.43416 -0.168644 0.0724339 -0.549206
194 1 5.16666 0.918156 7.37969 0.112466 0.585608 -0.252145
195 1 0.442579 8.18338 7.9612 1.19293 0.387737 0.317592
196 1 5.62715 6.92107 1.50734 1.22108 0.525236 -0.866544
197 1 3.91066 3.33651 5.2267 1.26922 0.195623 0.492872
198 1 0.943666 4.66536 6.34539 -0.684635 -0.0792821 -0.0339985
199 1 8.23371 5.87997 5.89038 -0.0160488 0.598589 -0.0914488
200 1 4.84559 7.8892 5.23843 -0.29561 -0.0586583 -0.241495
201 1 0.230389 3.2611 0.759392 0.581731 1.07892 -1.18472
202 1 9.01895 3.64816 4.38102 -1.03243 -1.55708 0.236328
203 1 9.21177 5.6863 6.26469 -0.676556 0.433654 -0.43629
204 1 7.04597 1.79444 4.62527 -0.876991 -0.412272 0.655791
205 1 1.26219 9.01373 6.49172 0.528874 0.765598 -0.537577
206 1 4.85062 9.11889 3.82072 -0.63586 -0.475632 -0.557653
207 1 7.23241 4.78527 7.35129 -0.612767 1.04429 0.505691
208 1 1.62681 3.91432 6.03788 -0.0175279 -0.0366665 -0.20212
209 1 6.58386 7.45 1.48949 -0.0443413 0.093545 -0.769096
210 1 1.45361 5.24298 8.82733 0.341805 -0.123812 -0.304523
211 1 3.94033 2.25923 5.15431 -0.46631 0.838167 0.34178
212 1 3.78967 3.98975 1.95796 0.927926 -0.377234 -0.14177
213 1 4.00635 2.71187 6.1562 0.945215 0.237767 0.225399
214 1 0.758211 6.43343 0.309522 0.692204 0.979802 -0.322228
215 1 7.06376 7.27652 8.75355 0.123477 0.173253 1.57256
216 1 3.68583 2.53922 8.77754 -0.939856 0.0391018 -0.169203
217 1 5.70873 1.12647 1.89947 -0.333249 -0.955488 0.108888
218 1 0.3365 2.93578 8.38568 -0.832405 -0.260211 1.55761
219 1 4.77111 2.34426 0.836043 -0.0844297 -0.0200123 0.105053
220 1 8.75044 3.3932 8.39576 -1.40015 -0.719011 -1.18808
221 1 6.58774 2.76798 3.58567 -0.288463 0.169901 -0.52617
222 1 5.18148 5.19926 6.76935 0.740872 1.13 0.34879
223 1 8.51628 5.38923 1.93769 -0.35234 0.797609 -0.101851
224 1 5.75718 7.78542 0.911392 -1.31989 -0.629723 -0.0495982
225 1 2.80672 1.80322 3.97512 0.940131 0.281896 0.374754
226 1 8.12715 7.48362 6.05068 -0.253859 -0.232043 0.499939
227 1 2.99025 3.84019 2.6433 -0.238187 -0.424099 0.581629
228 1 8.61723 8.3906 7.84503 -0.215972 -0.442745 0.762425
229 1 3.05743 7.55942 0.444938 0.358371 -0.237641 -0.342628
230 1 3.60637 0.707944 6.57458 -0.362447 0.602141 0.0507325
231 1 3.61753 7.57307 7.34524 0.168025 -0.073657 0.251023
232 1 1.74829 8.14743 7.94933 0.274434 -0.82898 -1.10036
233 1 7.8552 7.77608 8.25653 -0.205481 0.618014 -0.172054
234 1 5.2732 2.65581 9.35905 0.630643 0.562709 -0.218094
235 1 0.818188 5.22749 4.52601 0.0224502 0.488161 -0.0372713
236 1 7.27714 5.86142 6.32049 0.773819 0.588192 -0.317436
237 1 7.63916 3.42754 6.97172 0.391887 1.53117 -0.194506
238 1 4.28076 1.88926 9.36425 -0.380132 0.0531605 -0.758184
239 1 8.97576 4.08989 1.14797 0.319514 0.0410711 0.531864
240 1 4.68465 8.94946 4.89444 0.335117 -0.367955 -0.83847
241 1 5.42001 6.01271 3.15656 0.50072 -1.70728 0.278633
242 1 7.92565 3.36014 2.87742 -0.726455 0.218544 -1.40917
243 1 1.17204 0.869556 2.08891 -0.106857 0.83004 0.744815
244 1 7.97853 3.95499 7.87874 0.885733 0.748012 0.532924
245 1 7.11447 4.95644 2.80381 -0.151205 -0.995182 -0.171422
246 1 2.4267 6.93696 9.27681 0.744803 0.639439 -0.88485
247 1 1.3732 2.02804 1.46312 -0.184225 -0.440155 -0.104983
248 1 9.32075 8.84417 8.60078 -1.08563 -0.656013 -0.472215
249 1 1.37738 6.96403 4.43078 -0.354556 0.266832 -0.95575
250 1 2.22833 8.98329 2.60511 -0.102814 1.37582 -0.00392647
251 1 2.06295 7.2553 7.32992 0.844061 0.820892 0.208574
252 1 3.6596 3.34897 3.37248 -0.797931 -0.222959 -0.41545
253 1 0.782908 6.28987 6.0884 -0.0957505 0.948251 1.17163
254 1 5.39982 1.35859 4.03474 0.9484 1.00473 0.209696
255 1 8.94715 8.18061 0.193669 0.0150288 -0.343078 -0.335499
256 1 8.89784 7.71768 8.61398 -0.983401 0.0148969 -0.823511
257 1 4.85012 0.584673 4.63421 -0.121306 0.607912 -0.979476
258 1 4.33703 1.57518 2.94184 -0.0922338 1.17711 -0.00512817
259 1 2.75703 5.67338 1.50079 -0.131898 -0.724952 -0.206935
260 1 5.18348 8.57784 7.84744 -0.455314 -0.325655 -0.26479
261 1 5.04983 1.57366 8.74954 -0.760031 -0.925225 -0.280263
262 1 3.36701 4.43068 3.42585 0.742487 0.615998 -0.207781
263 1 5.35538 3.99958 5.45109 0.52861 -1.05793 0.83751
264 1 5.92676 2.772 2.35198 0.29427 0.0708248 0.127542
265 1 7.31338 5.68673 3.75718 0.167618 -0.307765 0.178773
266 1 8.39094 6.35631 2.38645 1.08209 -0.211352 1.02131
267 1 3.63837 8.48099 0.00757835 -2.34242 -2.10157 -0.297042
268 1 5.86388 3.2244 6.73243 -1.1313 0.549888 -0.843352
269 1 8.31208 6.17168 1.27084 0.155756 -1.10539 -0.21154
270 1 7.93668 3.28961 5.9355 0.712589 -0.708102 -0.294193
271 1 2.8643 0.317118 3.28085 -0.585465 0.40699 -0.528319
272 1 6.39541 4.07402 5.78054 0.648226 -0.264341 -0.599119
273 1 8.58873 6.16398 3.47908 -1.11801 0.295494 0.282118
274 1 6.55924 3.40438 0.64437 -0.165451 -0.770817 -1.01887
275 1 2.8168 8.27132 7.76485 0.696042 -0.888151 0.633637
276 1 5.56246 7.25396 9.3925 -0.0484619 -0.248181 -0.42669
277 1 6.1833 4.45155 4.80932 0.852913 -0.320866 -0.391255
278 1 1.18513 4.89593 1.20295 0.251011 -0.701784 -0.983707
279 1 9.36759 7.15971 0.132084 -0.116083 -0.906196 1.0763
280 1 5.69196 0.0997231 7.779 0.0584728 -0.294188 -0.450272
281 1 5.95981 6.84731 3.51919 -0.225287 -1.1808 -0.070297
282 1 3.14309 6.6478 4.34125 1.70832 0.195576 -1.05913
283 1 8.90255 6.72311 6.18654 0.538091 0.410887 -0.720302
284 1 3.79145 0.459983 8.58131 -0.0269248 0.917445 -1.3859
285 1 4.37387 4.57066 8.61061 -0.583114 0.302575 -0.103038
286 1 2.63993 0.522171 7.10346 0.435101 -0.487056 -1.2197
287 1 8.60799 3.54641 2.08677 0.357541 -1.32878 0.0939272
288 1 3.97652 0.0322123 1.87484 0.845318 -1.43366 0.913401
289 1 6.35817 4.39883 2.25051 -0.165797 0.960606 0.360636
290 1 2.23535 5.11465 3.62423 -0.578264 -0.571142 0.979467
291 1 1.50332 0.543104 7.08696 -0.313063 0.0502674 0.0595565
292 1 1.95828 5.19858 4.74867 -1.71839 0.0326878 0.407601
293 1 3.3399 7.60735 4.74192 -2.01657 0.295286 -0.38228
294 1 3.80096 6.45754 7.10327 0.990255 -1.07929 1.30028
295 1 3.53507 6.03598 5.17892 -1.10105 -0.568266 -0.425064
296 1 5.53354 3.37887 4.59919 0.751296 0.391872 -1.42077
297 1 4.13164 3.5498 8.92495 -0.514525 -0.151388 1.22268
298 1 7.98113 2.3053 0.615246 -0.482744 -0.163931 -0.576226
299 1 0.710569 7.97528 1.62443 0.0431506 1.89122 0.581431
300 1 6.33548 1.5824 1.13635 0.042617 0.381134 -0.508284
301 1 0.828839 2.13039 7.91646 0.313209 -0.126673 0.413095
302 1 6.55835 8.3775 6.13767 -0.337029 1.10544 -0.48643
303 1 4.48071 4.40016 6.91677 -0.372798 -0.807945 -0.359901
304 1 6.56447 1.37224 0.128144 0.429648 0.282961 -0.202107
305 1 1.51129 4.52517 0.271044 0.394001 -0.40396 0.434197
306 1 8.73548 0.28054 6.99292 -1.25045 0.210713 -0.654159
307 1 4.61705 6.53017 1.70949 0.816306 -0.969606 0.0858371
308 1 6.14373 8.80589 3.81 0.908768 -0.372737 -0.212488
309 1 3.66645 5.06038 4.84493 -0.00698838 -1.13019 1.90634
310 1 9.05468 2.27938 3.84987 -0.274127 0.293808 -0.264338
311 1 5.77923 2.28559 8.44665 0.280526 -0.353239 0.203385
312 1 4.12695 6.97376 2.51048 0.471397 -0.221416 0.0797114
313 1 9.23323 7.69748 1.09035 0.21152 -0.136521 -0.215497
314 1 5.54651 4.69962 8.21284 -0.608505 -0.151373 1.09759
315 1 5.95696 5.84922 6.48809 -0.415989 0.159118 -1.47313
316 1 1.10779 8.43438 3.10287 -1.38449 0.729875 -0.749921
317 1 3.76771 2.70509 0.490861 -0.0155959 -0.425431 -0.982088
318 1 0.324375 2.73063 5.30078 -0.645719 0.471299 -1.04539
319 1 7.57151 8.26119 6.50956 1.11909 1.05871 -0.893899
320 1 8.18729 2.46905 2.17121 -0.848325 0.364316 1.12916
321 1 4.70295 8.68341 5.94662 0.220249 0.858751 0.290181
322 1 0.400167 0.529556 7.08247 0.399763 0.183473 -0.154031
323 1 3.25238 5.51907 3.31667 0.742908 -0.61621 0.42717
324 1 5.51027 1.64381 0.33933 0.263004 -0.695991 -0.0649143
325 1 4.95667 1.92493 4.93527 0.43821 -0.636576 -0.148304
326 1 7.78173 0.0203414 7.39677 -0.974418 0.257806 0.415536
327 1 0.841651 6.97609 8.78111 -0.162551 0.269183 0.743207
328 1 4.60687 5.51013 1.99438 0.110207 -0.627496 0.224955
329 1 1.87517 3.49781 4.3816 -0.402216 -0.231704 0.276419
330 1 3.50257 2.61885 4.25139 -1.77938 0.691324 -0.433649
331 1 4.50852 3.7652 6.05068 -0.12301 0.389279 -1.36126
332 1 1.48226 4.10464 7.10465 0.60456 0.741832 0.689426
333 1 6.47999 6.56317 0.862732 -0.0888347 -0.0502232 0.703044
334 1 3.58981 0.165668 7.59022 0.485325 0.375536 -1.34842
335 1 3.88587 1.68623 0.929381 -1.33822 0.957191 -0.940446
336 1 0.887209 0.507241 6.11907 -0.603719 -0.213418 -0.267097
337 1 8.62819 3.42958 0.138817 0.413835 -0.110343 0.501916
338 1 5.96145 1.99847 3.2522 0.483883 0.546165 -0.377456
339 1 8.30309 8.62009 8.84185 0.649108 -0.275848 -0.0311981
340 1 2.71084 4.89685 2.61825 -0.70766 0.341393 0.889924
341 1 1.377 1.14848 0.255337 -1.12119 -0.23111 -0.496943
342 1 3.64169 7.92383 8.41687 0.242282 -0.3727 0.783598
343 1 2.1151 3.2465 2.78521 0.289552 0.368941 -1.30673
344 1 3.16186 0.91257 4.54667 0.480019 0.515131 0.422304
345 1 6.98536 8.41979 4.29453 0.228112 -0.446156 0.231773
346 1 0.558523 5.75385 6.99022 -0.462582 -0.375065 -0.0733363
347 1 8.98439 4.11352 7.50113 0.133305 1.08758 0.999322
348 1 5.13998 2.99707 7.58622 -0.790237 0.306413 0.144021
349 1 4.04609 1.06595 1.7811 0.637464 -1.26805 -0.0546013
350 1 4.83465 3.63333 3.82445 -0.0136732 -0.668838 0.00416353
351 1 7.18593 9.11027 2.00149 -0.186723 0.729104 -1.00991
352 1 5.10685 5.18745 9.04087 -0.300892 0.296284 0.78241
353 1 1.40311 1.11538 4.63146 -0.0459119 0.457548 -0.272249
354 1 2.74444 0.571048 8.20897 0.565106 0.645666 -0.684128
355 1 8.78421 3.63767 6.54006 -0.57005 -0.199124 0.255295
356 1 0.503359 4.30435 0.62161 -0.489323 1.36976 0.399857
357 1 5.53184 3.1014 1.19046 0.0694967 -0.823715 0.385986
358 1 1.12264 8.78452 8.5393 -2.32592 -0.912195 -0.562923
359 1 3.11487 3.4882 1.29718 0.890226 -0.286784 0.251707
360 1 5.97075 3.11726 5.59929 -1.29946 0.388675 -0.818257
361 1 3.51344 1.79428 2.29778 0.577872 0.562539 -1.06437
362 1 6.54862 3.39438 1.73234 0.518324 1.48205 -0.272823
363 1 8.25132 7.27019 1.86076 0.209168 1.1237 0.137661
364 1 4.37469 1.1584 8.01442 1.78165 0.762395 -0.502746
365 1 1.17061 8.95523 1.79179 0.17389 0.0305659 -1.1691
366 1 6.66509 7.92033 5.16462 -0.704164 0.328198 0.300849
367 1 7.87462 0.921973 4.67912 -0.536197 0.284945 -0.127016
368 1 2.54388 7.41267 1.448 -0.302558 0.284051 0.561118
369 1 7.73535 2.41118 5.3219 0.468799 0.764542 0.988469
370 1 4.8949 1.3329 1.22959 0.957753 0.406972 0.138983
371 1 8.33082 0.870982 2.6086 0.175311 0.181922 -0.824576
372 1 5.13861 9.32574 0.247237 0.795361 1.12729 0.754428
373 1 7.89235 0.865575 6.77116 -0.546068 -0.49007 -0.376751
374 1 6.90571 6.8191 3.93963 0.636723 1.04932 0.734028
375 1 5.09217 5.76523 5.77419 1.46743 -0.4023 -0.537934
376 1 2.64709 1.65113 7.9121 1.56582 0.920422 0.414582
377 1 2.7388 5.17217 8.12353 -0.354358 0.76514 -0.837977
378 1 8.22781 9.35212 2.06453 -0.248173 0.726819 -0.10265
379 1 8.95982 3.53027 5.46119 0.301528 -0.667452 -0.664664
380 1 8.63995 7.24792 2.94849 -0.113519 0.879711 0.196924
381 1 1.55898 5.33719 6.96637 1.13552 -0.117969 0.225021
382 1 6.60789 2.08024 2.01965 -0.852611 -0.753558 -0.046186
383 1 7.01949 2.59392 1.14533 -0.923654 -0.371293 -1.45498
384 1 7.22643 8.39688 1.18934 -1.06192 -0.0747906 0.511952
385 1 5.079 8.92748 1.95166 -0.237499 0.447706 1.14474
386 1 0.356685 2.16816 1.11205 0.0853112 0.120254 -0.300847
387 1 7.47486 1.73783 2.54643 -0.658008 0.507487 1.37151
388 1 4.81158 5.97153 8.36382 -0.0292144 0.368595 1.29695
389 1 7.36378 4.17091 6.1956 0.145619 0.0970827 0.0699286
390 1 8.36771 4.50545 4.753 0.688003 0.390713 0.262758
391 1 4.76313 0.927539 0.24127 -0.02232 0.269086 -0.527203
392 1 2.25466 0.874126 4.01279 0.888981 0.483718 0.346424
393 1 4.61552 0.0742155 7.71921 -0.0737905 0.289597 -1.22927
394 1 9.28828 4.55813 6.16924 0.109702 -0.33355 -0.290688
395 1 8.01248 5.28949 8.81316 0.2237 0.915844 -0.977106
396 1 2.95778 1.77668 5.13456 -0.479066 0.414135 0.746374
397 1 7.05435 3.27715 5.23981 -0.511301 0.61059 0.131661
398 1 7.48725 7.06119 1.10634 1.08147 -0.0866564 0.203803
399 1 2.00927 1.59065 2.23411 0.384162 0.30065 0.311907
400 1 6.86844 8.12326 2.23531 -0.581104 0.364623 -0.64974
401 1 3.52933 1.74854 6.03652 0.420529 -0.213535 0.51379
402 1 7.37807 0.259331 5.33486 0.23792 -0.91146 0.494939
403 1 0.792566 3.00581 1.66094 -1.59975 -0.0799378 1.15024
404 1 5.21072 7.02096 2.5673 1.32479 -0.485657 -0.971027
405 1 4.26959 1.63329 6.93734 0.237871 -0.71411 1.39405
406 1 2.19783 4.1962 5.15357 0.0637452 0.548253 -0.895206
407 1 5.45347 8.34621 0.0684189 -0.607674 0.153781 0.0158248
408 1 4.72833 2.65591 8.47294 -0.228484 -0.0892824 -0.315647
409 1 2.79448 1.36644 2.97223 -0.28963 -0.338458 0.96864
410 1 0.441868 3.85793 6.86595 -1.12092 0.814953 -0.0419668
411 1 6.59942 8.97203 5.25417 -1.01969 0.122105 0.980189
412 1 5.69761 0.39464 3.68978 -0.131744 0.493077 0.476463
413 1 2.00006 7.68902 0.597228 -0.144401 0.446533 -0.629402
414 1 1.36685 7.45735 3.46928 -0.908158 -0.487301 1.12712
415 1 1.39514 3.81256 1.17093 0.869963 0.279987 0.667565
416 1 0.0204437 8.71048 3.5054 1.93722 0.4064 -0.264864
417 1 1.36749 7.90789 4.94697 0.967625 -0.389916 -0.27462
418 1 3.42795 0.442623 0.99883 -0.279226 0.980375 -0.125392
419 1 7.57069 2.45366 3.31912 -0.483913 -0.583122 1.73157
420 1 0.0547358 1.83361 4.75858 0.805076 0.435323 -1.02
421 1 7.90915 8.31454 2.02747 0.668557 -1.45572 0.277628
422 1 3.06281 2.75947 5.61564 -0.489345 -0.0581068 -0.0720236
423 1 8.04005 7.55446 9.31422 0.407873 0.873485 0.552263
424 1 7.53134 8.47171 5.48747 -0.344649 -0.405242 -0.693096
425 1 1.73252 1.91864 5.26996 -0.754544 0.86746 -1.09185
426 1 9.09002 0.805099 8.66213 -1.13223 0.314205 -1.38584
427 1 6.44833 5.79021 5.56122 -0.369689 -0.452913 1.57503
428 1 3.26819 2.93527 6.96556 -0.0452693 0.530048 1.55084
429 1 4.62485 3.34345 0.478341 -0.309507 0.305369 -0.210522
430 1 2.37536 8.80079 6.22393 -0.745093 -1.05559 1.10642
431 1 9.19158 7.46384 7.57227 -0.416611 0.414418 1.0189
432 1 6.18556 0.771612 7.01167 0.286931 -0.478416 0.314402
433 1 3.80089 2.12253 7.7601 0.253142 -0.913829 -0.583603
434 1 4.71945 4.45301 2.11902 1.59841 -0.424234 1.67945
435 1 1.95032 0.67448 2.82339 0.452533 -1.54375 0.399209
436 1 2.07718 3.54194 9.15252 -0.555074 -0.422185 -0.501031
437 1 8.19625 4.99187 7.80984 -0.254762 0.262208 -0.604933
438 1 1.6965 8.98456 0.0682044 -0.379853 -0.598595 0.474205
439 1 5.16495 6.26616 4.17417 -0.940854 -0.289265 -0.43412
440 1 0.554016 4.44643 2.76674 0.746495 -0.14331 -0.44427
441 1 0.0952003 0.879068 2.40003 0.796932 -0.342425 1.13299
442 1 4.84431 6.92762 0.739876 0.471505 -0.968309 -1.13612
443 1 3.86414 6.80905 8.09512 -1.39182 -0.382371 -0.829081
444 1 7.87355 6.51425 4.30038 -0.398401 -0.0130788 -0.769905
445 1 4.91486 0.478335 8.6713 -0.428818 1.50678 -0.68923
446 1 7.39657 5.87579 2.26824 -0.825078 -0.46223 0.305363
447 1 0.966892 7.46036 0.480211 -0.460075 -0.751961 0.0673527
448 1 4.52979 7.71798 7.90827 -1.30409 -0.561409 -1.07298
449 1 2.3384 1.48507 8.88501 -0.0457717 -0.358241 1.01521
450 1 2.08898 9.03512 7.3405 -0.401317 0.11916 -0.209346
451 1 6.91291 0.70015 8.73147 -0.316121 0.0860058 0.132462
452 1 5.65623 6.72857 8.30807 0.651265 -0.534636 1.32659
453 1 5.43622 7.77328 8.47478 -0.915761 -0.389442 -0.187639
454 1 5.62587 6.40354 5.12482 1.33026 0.873232 -0.266154
455 1 4.14604 5.46318 6.7978 -0.0324374 0.51683 -0.615419
456 1 0.903796 6.34866 2.28108 0.822443 0.300362 0.360774
457 1 4.77663 4.31116 0.148873 -0.864755 -0.455928 -1.18584
458 1 8.52488 7.40643 4.51356 -0.309697 0.683708 1.25343
459 1 2.98957 7.06765 2.38326 -0.337246 -0.478941 -0.510793
460 1 8.40137 2.47126 8.91683 -0.378613 -0.64896 -0.419925
461 1 9.02825 4.85721 3.2698 0.244768 -1.04987 -0.796266
462 1 0.909144 6.51553 3.38818 0.659903 -0.692263 -0.123431
463 1 2.15029 0.47086 9.1145 -0.742228 -0.927877 0.47564
464 1 9.22186 6.2532 0.764055 -0.588395 -0.421641 0.293145
465 1 1.66039 8.09845 2.20691 -0.897019 -0.888764 -0.58649
466 1 8.18809 7.95941 1.06485 0.536736 0.0955553 -0.475724
467 1 5.35346 1.20889 2.93104 -1.87918 -0.0477234 0.399911
468 1 6.65088 8.95145 2.91225 -0.135124 -1.18551 -0.301706
469 1 2.40692 2.1506 1.27984 0.281084 -0.779877 0.575178
470 1 6.91006 5.32816 4.74012 -0.476401 -0.698687 0.768631
471 1 2.60632 8.53018 0.282789 -0.818351 1.1295 0.546622
472 1 2.37684 7.03319 6.29196 -0.292513 0.416938 -0.522887
473 1 8.94837 1.31544 6.84857 -0.0911506 0.0756222 -0.86632
474 1 6.67506 1.66037 8.4327 -0.210053 0.234223 -0.95342
475 1 4.44202 8.86648 8.6399 -0.204853 -0.234999 -0.655292
476 1 2.86028 5.59426 4.40241 0.515378 0.308441 -0.554433
477 1 8.36224 6.87296 7.82402 0.254496 0.815298 1.21915
478 1 5.73315 9.32802 4.66426 0.0433638 -0.994731 0.0059159
479 1 7.41809 0.741156 2.09443 1.29353 0.793494 -0.0504867
480 1 6.02187 6.82052 6.06911 0.683935 -0.928562 0.0845127
481 1 2.82334 4.4933 4.34588 0.470884 0.142549 0.418436
482 1 4.53456 6.31423 5.0618 0.523569 0.0401037 1.70808
483 1 1.02069 5.10092 3.45868 0.163287 0.515396 0.128633
484 1 0.148392 3.73031 9.07624 0.169043 -0.459174 -0.108839
485 1 6.68401 5.72856 7.21978 0.312535 0.222574 1.07869
486 1 1.68067 4.58046 2.77817 -1.48252 -0.888411 1.06661
487 1 0.549657 6.30451 4.45123 0.647802 0.0547434 0.577184
488 1 6.69536 2.27675 5.59475 1.25021 1.0947 -0.530514
489 1 6.47142 8.51851 0.490139 -0.0437887 1.29701 -1.57256
490 1 5.49187 6.04533 2.11151 -0.964844 -0.70528 0.175336
491 1 4.64787 5.27607 3.04108 1.12815 1.00225 -0.22701
492 1 1.54699 8.93628 5.47469 0.921748 -0.358868 -0.290625
493 1 7.93251 4.55312 0.549949 0.582662 -0.487067 0.0253101
494 1 4.36701 4.16025 3.06149 -1.58006 -1.14853 0.482727
495 1 3.20463 8.25911 1.17323 0.265884 -0.497784 -1.46238
496 1 2.60629 9.38984 5.35778 -0.0422249 -0.678032 0.428039
497 1 6.35569 7.57364 6.79161 0.525565 0.00460309 -0.379743
498 1 2.64639 1.08064 0.446562 -0.150572 0.315232 -0.200517
499 1 3.60119 2.99504 2.33325 -0.224776 -0.313575 0.130312
500 1 6.66155 6.34512 8.12957 0.740528 -0.576891 -0.468438
501 1 5.88917 4.23822 3.80219 0.142958 0.173676 -0.559671
502 1 7.89492 4.06179 3.9095 -0.182341 -1.09161 -0.286825
503 1 3.46139 1.16139 7.51261 -0.385918 -0.83929 0.540302
504 1 2.93025 0.60634 2.23826 0.995278 -0.699367 0.214101
505 1 7.63692 3.30787 0.517872 0.385133 0.863011 -1.36784
506 1 5.57809 5.73764 7.62158 0.141665 -0.359096 -1.12703
507 1 5.43809 7.60463 7.36111 -0.727686 -0.523361 -1.0971
508 1 0.752232 8.09304 4.0754 -0.226693 -1.29688 -0.904854
509 1 3.40258 2.46667 1.45024 0.39543 0.0272018 1.25324
510 1 5.6184 4.82244 0.543583 0.0882389 0.268493 0.521644
511 1 6.11543 1.75215 7.50681 -0.15251 1.12757 0.0501482
512 1 1.84912 6.12054 1.80511 1.02252 -0.0350373 -1.01869
513 1 4.75253 7.58822 1.61403 -1.37986 -0.233577 -0.0498938