ITEM: TIMESTEP
643
ITEM: NUMBER OF ATOMS
1000
ITEM: BOX BOUNDS pp pp pp
0.0000000000000000e+00 9.4000000000000004e+00
0.0000000000000000e+00 9.4000000000000004e+00
0.0000000000000000e+00 9.4000000000000004e+00
ITEM: ATOMS id type x y z vx vy vz
1 1 4.69501 0.258758 1.1896 0.195617 1.29979 -1.17318
2 1 7.89341 2.8503 7.79503 -0.905996 0.0649236 0.246998
3 1 0.334856 3.2415 3.64141 0.7256 -0.833113 -0.490475
4 1 0.626587 8.02937 6.96527 -0.789073 -0.172543 0.415414
5 1 5.58714 2.19477 5.82952 -0.143345 0.306932 0.121406
6 1 7.09645 7.32329 5.94065 1.14621 0.321748 0.748889
7 1 1.00478 8.63137 0.998321 0.783803 -1.2151 -0.120036
8 1 2.35251 2.20765 6.16136 -0.312783 0.196939 -0.789934
9 1 1.30635 2.73506 4.74203 -0.244802 -0.827792 1.1347
10 1 2.95132 9.0886 1.64969 -0.553566 1.22465 0.308814
11 1 8.3657 6.96851 0.673648 0.200495 0.936181 -0.107639
12 1 6.95698 2.99043 2.63054 0.179306 0.458125 0.287058
13 1 8.15393 1.7066 6.19314 -0.426361 1.04898 0.413214
14 1 3.64849 6.23694 1.54665 -0.369263 -1.55 -0.503808
15 1 7.78142 3.23971 1.56462 -0.307642 -1.39108 -0.861673
16 1 1.41009 3.11142 8.4817 -0.213904 0.062421 0.245575
17 1 8.24621 4.45738 6.84449 1.04411 -1.01053 -0.178016
18 1 0.232638 3.45584 2.5424 -0.45131 -0.642039 -0.0227376
19 1 6.20399 2.97771 9.02262 -0.300791 0.00208102 -0.565065
20 1 4.22899 3.39768 6.96414 0.67143 0.881256 -0.426932
21 1 1.74917 5.0973 5.76102 -0.036051 -0.677401 0.305308
22 1 2.95371 3.43303 4.71363 0.0453443 -0.878239 0.232974
23 1 5.19261 3.68478 8.67141 -0.0670367 -0.399171 0.31186
24 1 2.40169 4.08214 8.21396 0.731197 1.35004 -0.818016
25 1 6.27209 2.85538 7.61739 -0.749387 0.0610692 -0.3786
26 1 2.11733 3.12681 5.37604 0.143286 1.17331 0.288644
27 1 8.41544 0.941247 7.76228 -1.20476 0.191874 0.256976
28 1 4.44505 6.32316 3.3364 0.668765 0.270986 -0.92123
29 1 3.0884 0.0489393 9.3642 -1.08765 0.254144 0.263783
30 1 7.39916 2.7901 4.40364 -0.172205 -0.193658 0.545885
31 1 8.74278 3.04629 1.15111 0.0274398 -0.29357 0.383326
32 1 4.2979 0.3481 5.65151 -1.31743 -1.07006 -0.216315
33 1 1.90018 7.11557 8.32488 -0.873661 -0.194783 -0.744323
34 1 3.5072 7.30117 1.57435 1.13563 0.239885 1.45726
35 1 9.25009 0.521847 6.13624 0.501339 -0.602387 -1.2603
36 1 6.54204 6.43806 1.95623 -0.998059 -0.338714 0.965651
37 1 8.61188 1.52427 9.30287 -1.41701 0.484752 0.720133
38 1 1.25922 1.66003 3.12734 1.07537 -0.611544 0.178896
39 1 0.411155 0.888615 4.32403 -0.804961 0.123783 -1.45919
40 1 2.37305 4.08442 0.533623 0.704594 -0.0723098 -0.44441
41 1 6.14552 9.30578 6.2173 0.578341 1.30869 0.116311
42 1 1.31846 1.99518 8.84187 0.659211 0.523097 -0.00396538
43 1 1.92038 2.98143 1.7376 -0.267501 0.186139 0.74102
44 1 7.3057 1.33803 5.61231 1.2712 -0.921916 0.670881
45 1 6.34839 2.28211 6.66919 0.624809 -0.153435 -0.80212
46 1 7.71523 6.5008 3.20505 -0.795326 0.513696 -0.610975
47 1 6.01183 5.73272 0.270024 1.45881 0.085751 -0.103605
48 1 7.71833 7.44292 3.71805 0.41541 0.290781 -0.769314
49 1 3.46217 4.59054 6.70824 -1.55902 0.280106 0.339994
50 1 8.60911 8.06804 3.6219 0.182841 -0.492679 -0.622333
51 1 6.28895 7.34076 2.57778 0.0598218 0.13783 0.98327
52 1 1.1834 3.57296 0.11912 0.0577584 -0.510091 -1.07489
53 1 5.41912 2.93244 3.25218 1.03998 -0.797861 0.0298868
54 1 9.34342 6.19829 5.32392 -0.141011 0.0559832 0.833371
55 1 8.86911 5.19144 5.3976 -0.544464 0.459967 0.243861
56 1 0.0808132 4.38157 5.06383 0.750307 0.301925 0.644012
57 1 0.0624354 8.8267 6.45558 -0.318012 0.93268 0.0461159
58 1 5.07483 4.0154 1.14726 -0.287743 0.390828 0.951488
59 1 0.388512 7.40753 4.74463 1.02139 -0.217379 -1.10398
60 1 0.361023 5.39364 0.443476 0.416184 -0.0744253 -0.581626
61 1 5.57701 9.03803 8.72081 1.12814 -0.368727 -0.673697
62 1 0.453417 0.183298 1.45707 0.254936 -0.588561 -0.874245
63 1 7.35354 7.05114 7.6425 -0.494336 0.513564 -1.40099
64 1 3.30532 5.44316 8.96785 1.30952 0.840372 0.287974
65 1 2.29805 2.45657 8.76503 -0.0478519 -0.813454 -0.140153
66 1 6.32882 4.85418 9.06552 -0.827229 0.712486 -0.308813
67 1 6.37263 5.43402 2.31746 1.68003 -0.268701 -0.0197456
68 1 4.1597 5.14446 0.151755 -0.580847 -0.586758 -0.702486
69 1 2.56639 2.90562 0.616355 -0.651067 -0.733601 0.0826168
70 1 0.223281 1.45739 3.37356 -1.1083 0.559669 -1.06128
71 1 7.28212 5.94868 1.24314 0.396353 -0.0107838 0.30005
72 1 7.1442 4.95769 1.66148 -1.48544 -0.0482146 0.0827119
73 1 2.07183 8.57624 1.2436 0.781808 0.148621 -0.461463
74 1 4.68823 5.11922 7.71976 -0.690482 -0.782363 -1.01065
75 1 8.27428 9.18506 5.01993 0.815027 0.934191 0.0633358
76 1 6.78733 7.92036 3.33883 -0.842284 0.562584 -0.862759
77 1 4.67694 3.96313 7.79152 -0.483196 0.207005 -0.562384
78 1 2.40938 4.84622 9.10533 -0.614783 0.225662 0.412861
79 1 7.91148 7.84858 2.73039 -0.683023 -0.444229 -0.98775
80 1 0.0973717 6.56954 2.82128 0.229735 -0.734306 -0.989803
81 1 5.89955 0.365123 2.63136 -0.581743 -1.42862 0.0939504
82 1 9.34314 3.09119 7.40806 -0.385204 -0.36863 1.2831
83 1 3.43735 8.55656 4.33759 0.866491 -0.595882 0.0816319
84 1 0.717548 4.76801 7.35807 0.103317 0.95884 0.418837
85 1 2.21281 2.2174 3.18102 0.166796 -0.11158 -0.0662952
86 1 3.35537 4.4364 8.7139 -1.06486 -0.466979 -0.607531
87 1 9.04568 4.48724 2.2533 -1.132 -0.109519 0.568679
88 1 0.633381 1.62753 2.26212 0.813086 0.282061 0.455688
89 1 4.38235 2.18845 1.80372 0.412538 -0.0131429 0.651011
90 1 7.30258 7.07304 2.34321 0.512994 -0.0248741 0.809928
91 1 4.42677 2.59562 3.43612 -0.0324591 0.247634 0.258163
92 1 0.680135 1.16029 8.64256 -0.262531 -0.57927 -0.0482123
93 1 3.87594 5.96307 2.52414 0.826463 0.0143896 0.698056
94 1 4.89878 8.4888 1.00047 0.20983 1.27726 -0.772581
95 1 6.20495 6.02297 4.13636 1.04333 0.866978 0.9285
96 1 3.98666 8.58378 7.56028 -1.0219 -1.22437 0.128413
97 1 5.53471 4.61256 2.83282 1.11826 0.270494 -0.170471
98 1 8.47192 8.7871 2.82253 0.877781 0.804425 0.160682
99 1 1.05434 0.0223906 2.88147 -0.286165 0.0479697 -0.934425
100 1 6.73579 0.14667 7.83096 0.292647 0.134843 -0.562815
101 1 8.70763 5.24639 0.819229 0.449455 -1.81236 0.0402399
102 1 7.70261 6.54853 8.62676 0.323438 0.450131 0.918359
103 1 4.84829 0.545291 2.24213 0.771159 0.200962 1.1708
104 1 8.83277 0.250367 1.07324 1.08053 0.0589759 0.359188
105 1 7.39917 8.80106 8.25218 1.03558 0.340678 0.231594
106 1 3.96359 3.11995 7.92098 0.908673 1.2559 0.0162144
107 1 1.34828 7.126 1.56268 -0.959671 -0.092313 0.390774
108 1 8.95384 5.30448 9.05731 -0.0172939 -0.240577 -1.66899
109 1 5.39921 1.65155 6.69025 1.42079 -1.58493 -0.421803
110 1 2.75524 7.90686 6.75811 -1.20767 -0.217769 -0.170354
111 1 2.38131 0.0858912 0.77456 0.279664 0.913794 -0.215682
112 1 1.32381 5.98435 5.15932 -0.299982 -0.811532 0.0428792
113 1 9.39908 9.01723 7.52173 0.772675 -0.284647 -0.183596
114 1 2.1937 6.39398 4.65393 -0.0899609 -0.87238 1.03791
115 1 5.92771 8.50783 6.96048 -0.603722 -0.568173 0.766994
116 1 2.26832 7.75246 2.99352 0.362692 0.214607 -0.389715
117 1 7.33106 8.27568 9.33808 -0.0667484 -0.25626 2.08646
118 1 0.533023 0.225656 8.18444 -1.17461 0.350623 -0.409867
119 1 7.61833 0.116002 2.97113 0.042741 -0.302752 1.01677
120 1 7.35296 6.5552 0.227916 -0.0801053 -0.235167 0.510369
121 1 5.86247 5.78322 8.63828 -0.691812 -0.427497 1.73495
122 1 9.34033 8.73917 1.00957 -0.236948 0.570123 -0.66123
123 1 1.50623 2.51674 6.76623 -0.328244 -0.903128 -0.486603
124 1 3.44775 6.63045 3.27909 0.343341 -0.551646 0.348412
125 1 0.66594 2.28649 4.0495 -0.217235 0.222593 0.550422
126 1 0.339921 6.85162 6.84786 0.926515 -0.174393 0.665704
127 1 1.74152 0.143705 4.69212 -0.340224 0.104704 0.808015
128 1 4.90971 2.95222 5.45136 0.0116859 1.264 -1.21335
129 1 4.76256 4.98814 1.01661 -1.35426 -0.775432 -0.479733
130 1 8.25767 0.6972 5.75907 0.0274591 0.433892 -1.12387
131 1 9.06108 0.743018 5.06011 -1.40011 0.608268 -0.783609
132 1 6.72882 3.62878 4.20964 -0.0350578 0.530078 1.53259
133 1 3.88724 3.89182 4.27819 -1.01082 -0.771311 -0.281828
134 1 6.18623 2.40334 0.546739 -1.40006 0.0139915 0.514907
135 1 8.43434 1.6299 5.14592 -0.0391542 0.433345 0.328093
136 1 3.8881 5.86669 4.13317 0.307383 0.0643814 0.142253
137 1 2.8633 2.6857 7.81773 0.433172 0.873154 1.22286
138 1 1.43776 6.98036 5.5397 1.38975 -0.595438 -0.290933
139 1 0.730302 0.218815 5.09089 0.133325 1.16244 -2.19645
140 1 1.22398 3.85326 3.4174 0.732997 0.43519 0.478283
141 1 2.4343 3.26407 6.40641 0.369465 -0.0271692 -0.484763
142 1 3.45286 3.65424 6.19574 0.768267 0.924379 -1.2402
143 1 2.9588 6.34373 8.58476 -0.0137206 0.0572545 0.310383
144 1 9.03625 8.43472 1.98455 0.956977 0.649458 -1.30777
145 1 0.385761 6.45132 7.86264 0.118702 -0.462631 -0.886542
146 1 5.77853 9.08374 1.08047 -0.198018 -1.11725 -0.970133
147 1 1.28166 7.24643 6.54081 -0.126737 -0.545191 -0.197008
148 1 9.05697 4.36165 8.50392 0.54188 0.642458 0.712994
149 1 1.89686 6.72247 2.89678 -0.715371 0.365937 0.45075
150 1 1.02429 7.30638 7.67671 0.466347 -0.178855 0.318175
151 1 3.86282 8.3361 5.31757 0.725795 0.235029 -1.17803
152 1 4.46061 9.11978 2.82368 -1.1223 0.269959 -0.0221574
153 1 8.86489 2.79637 2.97068 -0.811496 -0.920097 -0.757015
154 1 5.95106 6.67758 7.24458 0.0241262 1.95033 -1.14124
155 1 5.29716 1.13754 5.56441 0.550501 -0.00625429 0.745307
156 1 3.89698 0.604308 2.82125 -0.620233 0.677887 -0.353426
157 1 8.49491 9.35332 8.12236 -0.54578 -0.00690929 -0.753318
158 1 0.537888 8.58182 4.9671 -0.572556 -1.18423 -0.56284
159 1 6.19164 7.71978 4.17646 -0.520137 -0.255357 0.131138
160 1 9.06912 1.28081 0.851585 -0.571339 -0.221042 -0.800492
161 1 2.25931 5.13516 0.738584 -1.08997 -0.809103 0.718647
162 1 7.22748 4.5194 8.39258 -0.320957 0.749476 -0.631798
163 1 6.5545 5.23759 8.0936 -1.01345 -0.448042 0.319581
164 1 1.76195 5.67653 2.83791 0.280952 1.40475 0.629611
165 1 3.48167 1.444 8.65232 -0.210248 0.357324 -0.0366603
166 1 8.25124 5.18855 3.91796 1.83811 -0.422294 0.403419
167 1 0.513952 8.86631 0.114312 -0.247252 -1.83678 -0.581254
168 1 6.87927 4.94315 0.577875 -1.2282 -0.761378 -1.76369
169 1 0.116969 5.24446 8.1017 -0.097215 -0.0773204 -1.03602
170 1 2.31517 7.30585 4.01088 -0.913005 -0.494629 -0.47861
171 1 0.991734 5.20172 2.2258 0.0100283 0.551366 -0.965008
172 1 6.33227 6.60179 9.20084 1.03163 -0.281457 -0.222744
173 1 6.17247 8.92793 2.02701 0.363697 0.0507374 0.123294
174 1 2.14608 3.35253 7.42534 0.0172896 -0.100881 0.0614007
175 1 4.11809 0.0615734 0.128686 -0.44127 -0.777113 -0.655384
176 1 3.29503 7.6128 3.71826 0.29301 -0.178439 0.584612
177 1 1.08248 0.268285 9.10911 -0.884654 0.109154 -0.323586
178 1 4.1717 6.27369 6.04614 -0.043163 0.718337 -0.282527
179 1 7.10587 4.09212 9.34504 0.793217 -0.501084 -1.21599
180 1 4.5115 7.26466 6.75554 0.0208372 0.54887 0.122523
181 1 7.74922 5.55215 0.37288 0.131886 0.65179 -0.994892
182 1 5.65087 8.00336 2.03241 0.910984 -0.564281 -0.145822
183 1 4.7225 6.99815 8.63362 -0.445191 -0.337286 0.881987
184 1 7.97193 6.63484 6.80072 -0.270411 -2.07737 0.894083
185 1 8.02223 1.94261 4.21939 -0.0248576 1.26269 0.155477
186 1 7.54916 7.3144 4.93731 0.391385 0.452065 0.921521
187 1 8.11085 4.41442 1.63425 -0.0448197 -0.643705 0.171609
188 1 9.33352 6.68153 8.78667 1.08376 -0.131537 0.76122
189 1 8.04155 3.50585 4.89101 0.310064 0.488297 0.644583
190 1 8.8931 3.8247 3.30243 -0.947821 1.61386 -0.33947
191 1 7.01934 2.76011 8.40343 -1.56168 0.460232 1.57151
192 1 8.12415 5.52029 6.88207 1.09214 0.287256 0.374774
193 1 4.04443 7.20154 5.3597 -0.168644 0.0724339 -0.549206
194 1 5.1676 0.964326 7.42654 0.112466 0.585608 -0.252145
195 1 0.420689 8.14985 8.01345 1.19293 0.387737 0.317592
196 1 5.65676 6.95163 1.63574 1.22108 0.525236 -0.866544
197 1 3.92972 3.35826 5.20951 1.26922 0.195623 0.492872
198 1 0.961296 4.65803 6.3112 -0.684635 -0.0792821 -0.0339985
199 1 8.24908 5.88293 5.8964 -0.0160488 0.598589 -0.0914488
200 1 4.82106 7.92298 5.29937 -0.29561 -0.0586583 -0.241495
201 1 0.301006 3.31706 0.767428 0.581731 1.07892 -1.18472
202 1 9.01293 3.65853 4.38551 -1.03243 -1.55708 0.236328
203 1 9.22487 5.68495 6.25584 -0.676556 0.433654 -0.43629
204 1 7.04259 1.79736 4.65156 -0.876991 -0.412272 0.655791
205 1 1.17829 9.01618 6.56113 0.528874 0.765598 -0.537577
206 1 4.89734 9.08206 3.80495 -0.63586 -0.475632 -0.557653
207 1 7.30074 4.63433 7.32173 -0.612767 1.04429 0.505691
208 1 1.64169 3.88341 6.00451 -0.0175279 -0.0366665 -0.20212
209 1 6.56042 7.51837 1.52935 -0.0443413 0.093545 -0.769096
210 1 1.51602 5.2439 8.76591 0.341805 -0.123812 -0.304523
211 1 3.93892 2.27542 5.14093 -0.46631 0.838167 0.34178
212 1 3.7695 4.00616 1.93403 0.927926 -0.377234 -0.14177
213 1 4.05169 2.75526 6.10779 0.945215 0.237767 0.225399
214 1 0.746848 6.50303 0.280853 0.692204 0.979802 -0.322228
215 1 7.04833 7.3361 8.84499 0.123477 0.173253 1.57256
216 1 3.6927 2.57809 8.82422 -0.939856 0.0391018 -0.169203
217 1 5.65292 1.14542 1.93362 -0.333249 -0.955488 0.108888
218 1 0.377385 2.93584 8.35944 -0.832405 -0.260211 1.55761
219 1 4.71724 2.33998 0.822296 -0.0844297 -0.0200123 0.105053
220 1 8.77536 3.31808 8.32482 -1.40015 -0.719011 -1.18808
221 1 6.53679 2.75512 3.61631 -0.288463 0.169901 -0.52617
222 1 5.20821 5.21256 6.7477 0.740872 1.13 0.34879
223 1 8.52372 5.35722 1.93212 -0.35234 0.797609 -0.101851
224 1 5.68324 7.76837 0.951168 -1.31989 -0.629723 -0.0495982
225 1 2.80144 1.77569 3.96216 0.940131 0.281896 0.374754
226 1 8.12843 7.44762 6.05545 -0.253859 -0.232043 0.499939
227 1 2.98965 3.83698 2.62708 -0.238187 -0.424099 0.581629
228 1 8.67401 8.33229 7.86646 -0.215972 -0.442745 0.762425
229 1 3.1072 7.56281 0.344085 0.358371 -0.237641 -0.342628
230 1 3.57364 0.734814 6.63241 -0.362447 0.602141 0.0507325
231 1 3.6325 7.58225 7.30042 0.168025 -0.073657 0.251023
232 1 1.79813 8.13096 7.97508 0.274434 -0.82898 -1.10036
233 1 7.82438 7.80807 8.23012 -0.205481 0.618014 -0.172054
234 1 5.29313 2.61306 9.37233 0.630643 0.562709 -0.218094
235 1 0.838736 5.20985 4.49648 0.0224502 0.488161 -0.0372713
236 1 7.28116 5.83512 6.25978 0.773819 0.588192 -0.317436
237 1 7.72398 3.49356 6.96882 0.391887 1.53117 -0.194506
238 1 4.19339 1.85933 0.0278153 -0.380132 0.0531605 -0.758184
239 1 9.02338 4.10589 1.21118 0.319514 0.0410711 0.531864
240 1 4.63483 8.96665 4.87461 0.335117 -0.367955 -0.83847
241 1 5.47257 6.02065 3.16561 0.50072 -1.70728 0.278633
242 1 7.93798 3.34143 2.90944 -0.726455 0.218544 -1.40917
243 1 1.16162 0.747454 2.06944 -0.106857 0.83004 0.744815
244 1 8.04107 3.98657 7.88619 0.885733 0.748012 0.532924
245 1 7.12911 4.89643 2.78963 -0.151205 -0.995182 -0.171422
246 1 2.39242 6.96622 9.2668 0.744803 0.639439 -0.88485
247 1 1.30936 2.06901 1.54582 -0.184225 -0.440155 -0.104983
248 1 9.3139 8.83153 8.62334 -1.08563 -0.656013 -0.472215
249 1 1.32742 6.96425 4.46783 -0.354556 0.266832 -0.95575
250 1 2.23874 9.0334 2.59024 -0.102814 1.37582 -0.00392647
251 1 2.07119 7.24957 7.28044 0.844061 0.820892 0.208574
252 1 3.66888 3.35627 3.35117 -0.797931 -0.222959 -0.41545
253 1 0.741586 6.28238 6.03157 -0.0957505 0.948251 1.17163
254 1 5.37654 1.38072 4.05703 0.9484 1.00473 0.209696
255 1 8.94331 8.20651 0.167244 0.0150288 -0.343078 -0.335499
256 1 8.96809 7.66073 8.60583 -0.983401 0.0148969 -0.823511
257 1 4.84303 0.603599 4.67316 -0.121306 0.607912 -0.979476
258 1 4.29663 1.58744 2.96707 -0.0922338 1.17711 -0.00512817
259 1 2.73569 5.7492 1.41762 -0.131898 -0.724952 -0.206935
260 1 5.17236 8.62388 7.80064 -0.455314 -0.325655 -0.26479
261 1 5.0268 1.63824 8.84085 -0.760031 -0.925225 -0.280263
262 1 3.38573 4.43767 3.39828 0.742487 0.615998 -0.207781
263 1 5.3723 4.00744 5.45232 0.52861 -1.05793 0.83751
264 1 5.90581 2.76458 2.33207 0.29427 0.0708248 0.127542
265 1 7.27367 5.64115 3.77499 0.167618 -0.307765 0.178773
266 1 8.39569 6.35787 2.35212 1.08209 -0.211352 1.02131
267 1 3.64269 8.47074 9.39859 -2.34242 -2.10157 -0.297042
268 1 5.83251 3.20939 6.74224 -1.1313 0.549888 -0.843352
269 1 8.29557 6.14233 1.29157 0.155756 -1.10539 -0.21154
270 1 7.98037 3.24488 5.96077 0.712589 -0.708102 -0.294193
271 1 2.87848 0.326751 3.35462 -0.585465 0.40699 -0.528319
272 1 6.41847 4.0664 5.78614 0.648226 -0.264341 -0.599119
273 1 8.72013 6.08734 3.36307 -1.11801 0.295494 0.282118
274 1 6.57406 3.39294 0.567112 -0.165451 -0.770817 -1.01887
275 1 2.84789 8.28987 7.74437 0.696042 -0.888151 0.633637
276 1 5.49283 7.2901 9.36253 -0.0484619 -0.248181 -0.42669
277 1 6.18342 4.45216 4.81427 0.852913 -0.320866 -0.391255
278 1 1.21812 4.96474 1.20117 0.251011 -0.701784 -0.983707
279 1 9.34234 7.23025 0.27862 -0.116083 -0.906196 1.0763
280 1 5.68201 0.153302 7.81119 0.0584728 -0.294188 -0.450272
281 1 5.98092 6.89303 3.49306 -0.225287 -1.1808 -0.070297
282 1 3.15535 6.66848 4.32134 1.70832 0.195576 -1.05913
283 1 8.91353 6.71308 6.16034 0.538091 0.410887 -0.720302
284 1 3.80992 0.447373 8.60097 -0.0269248 0.917445 -1.3859
285 1 4.38042 4.557 8.59486 -0.583114 0.302575 -0.103038
286 1 2.60963 0.565314 7.17518 0.435101 -0.487056 -1.2197
287 1 8.6473 3.51662 2.11889 0.357541 -1.32878 0.0939272
288 1 3.9569 9.37254 1.91362 0.845318 -1.43366 0.913401
289 1 6.37562 4.35886 2.20851 -0.165797 0.960606 0.360636
290 1 2.29102 5.11186 3.61159 -0.578264 -0.571142 0.979467
291 1 1.45372 0.54144 7.16139 -0.313063 0.0502674 0.0595565
292 1 1.98564 5.21804 4.74423 -1.71839 0.0326878 0.407601
293 1 3.26704 7.63019 4.76758 -2.01657 0.295286 -0.38228
294 1 3.77835 6.46149 7.06941 0.990255 -1.07929 1.30028
295 1 3.5665 6.04376 5.15299 -1.10105 -0.568266 -0.425064
296 1 5.5721 3.39275 4.61069 0.751296 0.391872 -1.42077
297 1 4.15069 3.54991 8.92468 -0.514525 -0.151388 1.22268
298 1 8.00001 2.35514 0.628279 -0.482744 -0.163931 -0.576226
299 1 0.602755 7.91585 1.61304 0.0431506 1.89122 0.581431
300 1 6.31176 1.5649 1.17229 0.042617 0.381134 -0.508284
301 1 0.774152 2.08451 7.89282 0.313209 -0.126673 0.413095
302 1 6.54423 8.32884 6.07887 -0.337029 1.10544 -0.48643
303 1 4.49593 4.42822 6.88799 -0.372798 -0.807945 -0.359901
304 1 6.51859 1.39593 0.132453 0.429648 0.282961 -0.202107
305 1 1.48339 4.58639 0.250621 0.394001 -0.40396 0.434197
306 1 8.71703 0.222867 7.01118 -1.25045 0.210713 -0.654159
307 1 4.66306 6.51717 1.72694 0.816306 -0.969606 0.0858371
308 1 6.03354 8.77562 3.77596 0.908768 -0.372737 -0.212488
309 1 3.68792 5.06386 4.82432 -0.00698838 -1.13019 1.90634
310 1 9.04109 2.25849 3.86671 -0.274127 0.293808 -0.264338
311 1 5.70815 2.31568 8.34419 0.280526 -0.353239 0.203385
312 1 4.09389 7.00188 2.45494 0.471397 -0.221416 0.0797114
313 1 8.99522 7.73729 1.1602 0.21152 -0.136521 -0.215497
314 1 5.57718 4.72076 8.20797 -0.608505 -0.151373 1.09759
315 1 6.08189 5.8168 6.58866 -0.415989 0.159118 -1.47313
316 1 1.44092 8.45302 3.09949 -1.38449 0.729875 -0.749921
317 1 3.72772 2.74351 0.487729 -0.0155959 -0.425431 -0.982088
318 1 0.330516 2.69001 5.25409 -0.645719 0.471299 -1.04539
319 1 7.53406 8.22089 6.48867 1.11909 1.05871 -0.893899
320 1 8.17226 2.4896 2.24977 -0.848325 0.364316 1.12916
321 1 4.62993 8.75358 5.93258 0.220249 0.858751 0.290181
322 1 0.356491 0.544153 7.10588 0.399763 0.183473 -0.154031
323 1 3.30145 5.52357 3.29732 0.742908 -0.61621 0.42717
324 1 5.48587 1.6439 0.424884 0.263004 -0.695991 -0.0649143
325 1 4.95508 1.94373 4.94466 0.43821 -0.636576 -0.148304
326 1 7.73902 9.38344 7.40794 -0.974418 0.257806 0.415536
327 1 0.934738 7.00688 8.75074 -0.162551 0.269183 0.743207
328 1 4.6138 5.49091 1.93151 0.110207 -0.627496 0.224955
329 1 1.92199 3.49449 4.3629 -0.402216 -0.231704 0.276419
330 1 3.5202 2.59802 4.22187 -1.77938 0.691324 -0.433649
331 1 4.51724 3.78737 6.03622 -0.12301 0.389279 -1.36126
332 1 1.48838 4.07165 7.04679 0.60456 0.741832 0.689426
333 1 6.44879 6.5453 0.902935 -0.0888347 -0.0502232 0.703044
334 1 3.56396 0.145945 7.61583 0.485325 0.375536 -1.34842
335 1 3.74194 1.70404 1.00216 -1.33822 0.957191 -0.940446
336 1 0.886278 0.51924 6.15463 -0.603719 -0.213418 -0.267097
337 1 8.65807 3.394 0.117818 0.413835 -0.110343 0.501916
338 1 5.93153 1.98549 3.25101 0.483883 0.546165 -0.377456
339 1 8.26867 8.6127 8.86332 0.649108 -0.275848 -0.0311981
340 1 2.74903 4.9139 2.58457 -0.70766 0.341393 0.889924
341 1 1.38898 1.15547 0.210628 -1.12119 -0.23111 -0.496943
342 1 3.68936 7.92854 8.36906 0.242282 -0.3727 0.783598
343 1 2.12254 3.2495 2.79254 0.289552 0.368941 -1.30673
344 1 3.13631 0.908304 4.57928 0.480019 0.515131 0.422304
345 1 6.91732 8.53863 4.24605 0.228112 -0.446156 0.231773
346 1 0.568065 5.76415 6.97219 -0.462582 -0.375065 -0.0733363
347 1 9.04394 4.11303 7.49301 0.133305 1.08758 0.999322
348 1 5.14647 3.01896 7.61862 -0.790237 0.306413 0.144021
349 1 3.9774 1.01755 1.80719 0.637464 -1.26805 -0.0546013
350 1 4.88215 3.63724 3.80811 -0.0136732 -0.668838 0.00416353
351 1 7.19818 9.1576 2.0267 -0.186723 0.729104 -1.00991
352 1 5.09802 5.19982 9.0376 -0.300892 0.296284 0.78241
353 1 1.38699 1.13311 4.67112 -0.0459119 0.457548 -0.272249
354 1 2.73943 0.545375 8.28353 0.565106 0.645666 -0.684128
355 1 8.82786 3.60734 6.54843 -0.57005 -0.199124 0.255295
356 1 0.534391 4.34356 0.660147 -0.489323 1.36976 0.399857
357 1 5.5445 3.07991 1.1335 0.0694967 -0.823715 0.385986
358 1 1.12362 8.70847 8.62357 -2.32592 -0.912195 -0.562923
359 1 3.0804 3.62116 1.24107 0.890226 -0.286784 0.251707
360 1 5.98669 3.12221 5.62867 -1.29946 0.388675 -0.818257
361 1 3.50456 1.8349 2.24225 0.577872 0.562539 -1.06437
362 1 6.54727 3.35487 1.71875 0.518324 1.48205 -0.272823
363 1 8.2249 7.29222 1.80973 0.209168 1.1237 0.137661
364 1 4.38129 1.19176 8.07925 1.78165 0.762395 -0.502746
365 1 1.28411 9.05472 1.92061 0.17389 0.0305659 -1.1691
366 1 6.68296 7.91795 5.09398 -0.704164 0.328198 0.300849
367 1 7.8396 0.909097 4.68931 -0.536197 0.284945 -0.127016
368 1 2.40391 7.36439 1.55507 -0.302558 0.284051 0.561118
369 1 7.73395 2.38619 5.36702 0.468799 0.764542 0.988469
370 1 4.82213 1.34277 1.27304 0.957753 0.406972 0.138983
371 1 8.36509 0.881676 2.66226 0.175311 0.181922 -0.824576
372 1 5.11883 9.32123 0.273205 0.795361 1.12729 0.754428
373 1 7.87477 0.824541 6.77281 -0.546068 -0.49007 -0.376751
374 1 6.86715 6.88462 4.03163 0.636723 1.04932 0.734028
375 1 5.15233 5.77636 5.75783 1.46743 -0.4023 -0.537934
376 1 2.59348 1.63412 7.94806 1.56582 0.920422 0.414582
377 1 2.73476 5.14245 8.09917 -0.354358 0.76514 -0.837977
378 1 8.29632 0.0363537 1.98641 -0.248173 0.726819 -0.10265
379 1 8.998 3.49483 5.46334 0.301528 -0.667452 -0.664664
380 1 8.61701 7.15041 3.03672 -0.113519 0.879711 0.196924
381 1 1.56222 5.34165 6.93615 1.13552 -0.117969 0.225021
382 1 6.63277 2.12328 2.00741 -0.852611 -0.753558 -0.046186
383 1 7.04686 2.64001 1.11886 -0.923654 -0.371293 -1.45498
384 1 7.11786 8.42389 1.24242 -1.06192 -0.0747906 0.511952
385 1 5.05486 8.93901 1.93123 -0.237499 0.447706 1.14474
386 1 0.400649 2.27406 1.05239 0.0853112 0.120254 -0.300847
387 1 7.45395 1.77239 2.56904 -0.658008 0.507487 1.37151
388 1 4.80098 5.9779 8.34415 -0.0292144 0.368595 1.29695
389 1 7.38778 4.1351 6.19259 0.145619 0.0970827 0.0699286
390 1 8.35971 4.51342 4.75669 0.688003 0.390713 0.262758
391 1 4.73717 0.928608 0.286352 -0.02232 0.269086 -0.527203
392 1 2.23284 0.864457 4.05797 0.888981 0.483718 0.346424
393 1 4.59493 0.121555 7.76233 -0.0737905 0.289597 -1.22927
394 1 9.30084 4.55337 6.18334 0.109702 -0.33355 -0.290688
395 1 7.89444 5.46569 8.69812 0.2237 0.915844 -0.977106
396 1 2.95473 1.78217 5.15779 -0.479066 0.414135 0.746374
397 1 7.07531 3.27535 5.3137 -0.511301 0.61059 0.131661
398 1 7.39938 7.01725 1.16555 1.08147 -0.0866564 0.203803
399 1 1.96889 1.57323 2.24907 0.384162 0.30065 0.311907
400 1 6.95218 8.14766 2.28965 -0.581104 0.364623 -0.64974
401 1 3.49797 1.81138 6.06483 0.420529 -0.213535 0.51379
402 1 7.36694 0.250243 5.34896 0.23792 -0.91146 0.494939
403 1 0.83185 3.05313 1.67002 -1.59975 -0.0799378 1.15024
404 1 5.17945 6.99782 2.60389 1.32479 -0.485657 -0.971027
405 1 4.17682 1.65406 6.93881 0.237871 -0.71411 1.39405
406 1 2.21276 4.20154 5.13507 0.0637452 0.548253 -0.895206
407 1 5.42624 8.34553 0.0817117 -0.607674 0.153781 0.0158248
408 1 4.70984 2.66503 8.50195 -0.228484 -0.0892824 -0.315647
409 1 2.81625 1.36115 2.93581 -0.28963 -0.338458 0.96864
410 1 0.456051 3.8693 6.84814 -1.12092 0.814953 -0.0419668
411 1 6.5936 8.97198 5.22794 -1.01969 0.122105 0.980189
412 1 5.68636 0.413863 3.7037 -0.131744 0.493077 0.476463
413 1 2.05849 7.6548 0.628558 -0.144401 0.446533 -0.629402
414 1 1.38932 7.46592 3.50582 -0.908158 -0.487301 1.12712
415 1 1.40501 3.86283 1.17035 0.869963 0.279987 0.667565
416 1 0.00339205 8.75315 3.44699 1.93722 0.4064 -0.264864
417 1 1.32311 7.91144 4.96365 0.967625 -0.389916 -0.27462
418 1 3.40082 0.419843 1.03449 -0.279226 0.980375 -0.125392
419 1 7.52831 2.47268 3.37083 -0.483913 -0.583122 1.73157
420 1 0.0287337 1.79081 4.76386 0.805076 0.435323 -1.02
421 1 7.97922 8.41136 1.85353 0.668557 -1.45572 0.277628
422 1 3.09285 2.77926 5.61307 -0.489345 -0.0581068 -0.0720236
423 1 8.10575 7.52845 9.22328 0.407873 0.873485 0.552263
424 1 7.51357 8.46443 5.4717 -0.344649 -0.405242 -0.693096
425 1 1.75473 1.95896 5.27131 -0.754544 0.86746 -1.09185
426 1 9.04811 0.730778 8.66358 -1.13223 0.314205 -1.38584
427 1 6.41506 5.79539 5.57254 -0.369689 -0.452913 1.57503
428 1 3.32024 2.84697 6.8822 -0.0452693 0.530048 1.55084
429 1 4.63946 3.33364 0.458169 -0.309507 0.305369 -0.210522
430 1 2.3398 8.79139 6.2412 -0.745093 -1.05559 1.10642
431 1 9.23141 7.45664 7.5242 -0.416611 0.414418 1.0189
432 1 6.18916 0.775321 7.01596 0.286931 -0.478416 0.314402
433 1 3.76665 2.10946 7.82657 0.253142 -0.913829 -0.583603
434 1 4.71735 4.43526 2.07291 1.59841 -0.424234 1.67945
435 1 1.95492 0.678442 2.84639 0.452533 -1.54375 0.399209
436 1 2.16827 3.39959 9.15814 -0.555074 -0.422185 -0.501031
437 1 8.31927 5.01274 7.84519 -0.254762 0.262208 -0.604933
438 1 1.6264 8.86535 0.170919 -0.379853 -0.598595 0.474205
439 1 5.14458 6.25406 4.15762 -0.940854 -0.289265 -0.43412
440 1 0.536116 4.43224 2.82146 0.746495 -0.14331 -0.44427
441 1 9.20283 0.902802 1.87722 0.796932 -0.342425 1.13299
442 1 4.92658 6.94291 0.793678 0.471505 -0.968309 -1.13612
443 1 3.88363 6.80149 8.04227 -1.39182 -0.382371 -0.829081
444 1 7.78793 6.45017 4.30791 -0.398401 -0.0130788 -0.769905
445 1 4.91352 0.495743 8.71902 -0.428818 1.50678 -0.68923
446 1 7.39382 5.84999 2.28253 -0.825078 -0.46223 0.305363
447 1 1.00865 7.53574 0.56884 -0.460075 -0.751961 0.0673527
448 1 4.55866 7.72203 7.82916 -1.30409 -0.561409 -1.07298
449 1 2.26708 1.40709 8.90452 -0.0457717 -0.358241 1.01521
450 1 2.09135 9.04683 7.32707 -0.401317 0.11916 -0.209346
451 1 6.87942 0.749055 8.71403 -0.316121 0.0860058 0.132462
452 1 5.68525 6.7516 8.30079 0.651265 -0.534636 1.32659
453 1 5.44234 7.82821 8.44693 -0.915761 -0.389442 -0.187639
454 1 5.61996 6.43654 5.08176 1.33026 0.873232 -0.266154
455 1 4.16287 5.47621 6.79228 -0.0324374 0.51683 -0.615419
456 1 0.9936 6.31006 2.28673 0.822443 0.300362 0.360774
457 1 4.78932 4.30345 0.122132 -0.864755 -0.455928 -1.18584
458 1 8.5131 7.38097 4.43776 -0.309697 0.683708 1.25343
459 1 2.89111 7.07625 2.44945 -0.337246 -0.478941 -0.510793
460 1 8.35452 2.51772 8.93405 -0.378613 -0.64896 -0.419925
461 1 9.01947 4.88141 3.28032 0.244768 -1.04987 -0.796266
462 1 0.952034 6.51512 3.41732 0.659903 -0.692263 -0.123431
463 1 2.117 0.40175 9.18384 -0.742228 -0.927877 0.47564
464 1 9.18703 6.24205 0.75554 -0.588395 -0.421641 0.293145
465 1 1.63707 8.07353 2.09906 -0.897019 -0.888764 -0.58649
466 1 7.95334 7.8956 0.898339 0.536736 0.0955553 -0.475724
467 1 5.30612 1.19844 2.95525 -1.87918 -0.0477234 0.399911
468 1 6.6846 8.94609 2.9457 -0.135124 -1.18551 -0.301706
469 1 2.35375 2.10379 1.29103 0.281084 -0.779877 0.575178
470 1 6.90338 5.32696 4.75474 -0.476401 -0.698687 0.768631
471 1 2.59841 8.51267 0.212391 -0.818351 1.1295 0.546622
472 1 2.37074 7.03428 6.25637 -0.292513 0.416938 -0.522887
473 1 8.90295 1.25094 6.84945 -0.0911506 0.0756222 -0.86632
474 1 6.6372 1.76711 8.51252 -0.210053 0.234223 -0.95342
475 1 4.4615 8.84832 8.67481 -0.204853 -0.234999 -0.655292
476 1 2.88713 5.60499 4.39868 0.515378 0.308441 -0.554433
477 1 8.41283 6.92266 7.87152 0.254496 0.815298 1.21915
478 1 5.72245 9.3328 4.65949 0.0433638 -0.994731 0.0059159
479 1 7.44668 0.779797 2.11627 1.29353 0.793494 -0.0504867
480 1 5.99771 6.76914 6.09234 0.683935 -0.928562 0.0845127
481 1 2.85254 4.50077 4.34167 0.470884 0.142549 0.418436
482 1 4.56711 6.31223 5.06157 0.523569 0.0401037 1.70808
483 1 1.10568 5.05794 3.44134 0.163287 0.515396 0.128633
484 1 0.216161 3.6653 9.10922 0.169043 -0.459174 -0.108839
485 1 6.94628 5.64247 7.2273 0.312535 0.222574 1.07869
486 1 1.7435 4.56131 2.74927 -1.48252 -0.888411 1.06661
487 1 0.525177 6.28297 4.44031 0.647802 0.0547434 0.577184
488 1 6.7 2.2707 5.64988 1.25021 1.0947 -0.530514
489 1 6.42855 8.53381 0.499523 -0.0437887 1.29701 -1.57256
490 1 5.52523 5.99628 2.12264 -0.964844 -0.70528 0.175336
491 1 4.69283 5.28726 2.99052 1.12815 1.00225 -0.22701
492 1 1.49072 8.98319 5.54446 0.921748 -0.358868 -0.290625
493 1 7.93851 4.5182 0.58189 0.582662 -0.487067 0.0253101
494 1 4.391 4.15933 3.0355 -1.58006 -1.14853 0.482727
495 1 3.09387 8.19762 1.13919 0.265884 -0.497784 -1.46238
496 1 2.58166 0.0107954 5.41055 -0.0422249 -0.678032 0.428039
497 1 6.42005 7.55661 6.78062 0.525565 0.00460309 -0.379743
498 1 2.60767 1.10376 0.494268 -0.150572 0.315232 -0.200517
499 1 3.6095 2.99931 2.32053 -0.224776 -0.313575 0.130312
500 1 6.69041 6.34313 8.11405 0.740528 -0.576891 -0.468438
501 1 5.90893 4.25984 3.78699 0.142958 0.173676 -0.559671
502 1 7.91768 4.06844 3.90204 -0.182341 -1.09161 -0.286825
503 1 3.45052 1.14175 7.61117 -0.385918 -0.83929 0.540302
504 1 2.99494 0.504692 2.30882 0.995278 -0.699367 0.214101
505 1 7.66396 3.35087 0.474429 0.385133 0.863011 -1.36784
506 1 5.55597 5.76338 7.60712 0.141665 -0.359096 -1.12703
507 1 5.49044 7.62544 7.3504 -0.727686 -0.523361 -1.0971
508 1 0.723985 8.12381 4.01753 -0.226693 -1.29688 -0.904854
509 1 3.29278 2.58278 1.42738 0.39543 0.0272018 1.25324
510 1 5.65844 4.78785 0.500249 0.0882389 0.268493 0.521644
511 1 6.07299 1.71808 7.52991 -0.15251 1.12757 0.0501482
512 1 1.97952 6.343 1.85414 1.02252 -0.0350373 -1.01869
513 1 4.72259 7.59193 1.63479 -1.37986 -0.233577 -0.0498938
514 1 8.06974 5.4222 2.928 -0.922357 0.651702 0.219641