ITEM: TIMESTEP
110
ITEM: NUMBER OF ATOMS
1000
ITEM: BOX BOUNDS pp pp pp
0.0000000000000000e+00 9.4000000000000004e+00
0.0000000000000000e+00 9.4000000000000004e+00
0.0000000000000000e+00 9.4000000000000004e+00
ITEM: ATOMS id type x y z vx vy vz
1 1 4.78761 0.0837231 1.23237 -0.414749 0.990878 -1.05026
2 1 8.04047 2.91557 7.89687 -0.380874 -0.434002 0.0728033
3 1 0.353434 3.17934 3.75066 0.997095 0.584665 0.541464
4 1 0.774163 8.15805 6.95077 -0.106818 0.663707 0.795971
5 1 5.63468 2.12226 5.80991 -0.229506 0.470712 -0.555966
6 1 7.14362 7.30852 5.98459 -0.0874453 -0.243721 0.829184
7 1 1.17798 8.33832 0.554013 0.413604 -0.162402 0.564303
8 1 2.41584 2.19216 6.12356 0.0496716 -0.22161 -0.124242
9 1 1.19171 2.86241 4.77078 0.00858963 0.185981 0.427474
10 1 2.83673 9.13268 1.56696 0.552142 -0.199493 0.0313953
11 1 8.49846 6.94728 0.670979 -1.35301 0.449042 -2.90828
12 1 7.02544 2.90924 2.62165 1.04855 -0.402943 -0.125181
13 1 8.22577 1.78498 6.34396 0.478874 -1.38653 -0.191818
14 1 3.67305 6.24485 1.66499 -0.270649 -0.670745 -0.458962
15 1 7.71771 3.19146 1.46323 1.63299 0.905289 0.3588
16 1 1.30594 3.1041 8.49943 0.0128767 -0.050677 -0.497783
17 1 8.12809 4.45703 6.97119 -0.43061 0.651598 0.00829138
18 1 0.255183 3.53596 2.56948 1.04488 0.676142 -0.271451
19 1 6.20861 2.96688 8.99981 -0.141857 0.366316 1.40792
20 1 4.2385 3.38335 6.97301 -0.121038 0.525173 0.0298233
21 1 1.73096 5.15818 5.76455 0.80925 -1.15925 0.0389339
22 1 2.90381 3.55032 4.84879 0.177104 -1.58807 1.7778
23 1 5.12828 3.50166 8.8104 0.547222 -0.534016 0.599985
24 1 2.34842 4.11245 8.26829 0.854338 -0.628357 0.541441
25 1 6.14003 2.90103 7.66462 -0.180884 -0.544742 -0.0941242
26 1 2.07732 3.18633 5.44977 0.220214 0.640685 0.237737
27 1 8.45407 0.97082 7.76972 -0.0122701 0.254978 0.752422
28 1 4.47116 6.35379 3.36706 0.130347 0.805557 -0.020531
29 1 3.01643 0.0504948 9.36841 -0.827238 0.253879 0.497399
30 1 7.30171 2.63975 4.29329 0.442622 -0.565744 0.678759
31 1 8.64281 2.95716 0.991846 0.0249868 0.783592 -0.139356
32 1 4.25976 0.378186 5.65431 -1.14107 -0.459258 0.342133
33 1 1.76735 7.25262 8.43425 0.57084 -1.18095 -0.902487
34 1 3.45449 7.36895 1.60533 -0.712145 0.0697315 -0.847645
35 1 9.19798 0.651608 6.04757 -0.800631 -0.032507 -0.529542
36 1 6.49163 6.44247 1.93097 -1.22323 0.0881836 -0.87844
37 1 8.52905 1.4604 9.34155 -0.745941 0.292643 -1.79335
38 1 1.15305 1.58294 3.00449 -0.213495 0.206766 0.615113
39 1 0.42829 0.93693 4.34228 -0.0727058 -0.97454 1.06687
40 1 2.35441 4.05358 0.577104 1.56701 0.564304 0.706086
41 1 6.25821 9.3725 6.18844 0.0578179 -0.274901 -0.671569
42 1 1.39389 2.0391 8.74544 0.464647 -0.56898 0.0956701
43 1 1.94229 3.04043 1.63238 0.697465 1.18655 0.0384286
44 1 7.35023 1.40293 5.74647 -0.478588 -1.20069 -0.236537
45 1 6.32449 2.36748 6.65334 1.27422 -1.13733 -0.673549
46 1 7.80327 6.69335 3.11518 -0.0299562 0.203689 0.49116
47 1 6.09735 5.65718 0.296911 0.663082 -1.23101 -1.09107
48 1 7.61842 7.60602 3.93888 -1.01759 0.801806 -0.335114
49 1 3.43115 4.63179 6.70111 -0.224314 -0.119563 0.0372116
50 1 8.53954 8.01317 3.60103 0.485245 0.512475 -1.63094
51 1 6.24022 7.27519 2.70789 0.0364214 0.0210785 -0.101262
52 1 1.17578 3.49257 0.100201 -0.403948 0.166276 0.316354
53 1 5.44637 2.91924 3.17056 0.294838 1.15017 -1.26679
54 1 0.0730735 6.35165 5.47091 -0.015981 -1.09885 0.152886
55 1 8.8413 5.28428 5.2837 -0.0933392 -1.62246 0.352371
56 1 0.160978 4.50468 5.06948 -1.95967 -0.650593 -0.669705
57 1 0.035974 8.90481 6.40169 1.23423 0.844588 0.307902
58 1 5.12808 3.92049 1.23183 -0.832037 0.45874 -0.655489
59 1 0.446765 7.49637 4.75535 0.470989 0.410497 0.768774
60 1 0.433079 5.31534 0.520935 -0.346067 0.986811 0.1755
61 1 5.57063 8.99696 8.69997 -0.246831 0.386819 -0.427639
62 1 0.393434 0.197641 1.60325 0.659754 -0.0141259 0.529428
63 1 7.37118 7.17774 7.72156 -1.01129 0.0253779 -0.45038
64 1 3.43839 5.35892 9.05088 0.696084 -1.62302 -0.581641
65 1 2.40964 2.5058 8.73969 1.19313 -0.161782 -0.120662
66 1 6.27971 4.77423 9.05575 0.360574 0.0708228 -0.53581
67 1 6.42717 5.42275 2.35475 -0.632135 -0.0686667 0.885857
68 1 4.24343 5.13305 0.232466 0.814193 -1.03512 0.652077
69 1 2.53004 2.96102 0.72566 1.16385 -0.13828 0.571685
70 1 0.144053 1.45309 3.4238 -0.0196869 1.20386 -0.346982
71 1 7.19765 5.85932 1.26692 0.641347 0.523068 0.783026
72 1 7.12297 4.89662 1.6938 -0.0969936 0.299538 0.1149
73 1 2.09628 8.58536 1.2144 -0.994053 0.635997 0.429443
74 1 4.69012 5.12104 7.73017 -0.0928555 1.73117 0.936309
75 1 8.33456 9.31589 5.001 0.853983 1.35469 -1.4849
76 1 6.81787 7.97929 3.4229 -0.41071 -0.20225 -0.418671
77 1 4.77408 3.96064 7.84102 1.26729 -0.747424 0.871841
78 1 2.44677 4.85481 9.09782 0.180645 -1.55927 -0.373683
79 1 7.7451 7.71869 2.93241 0.0475226 0.468068 -0.0132473
80 1 0.0726137 6.52042 2.89953 -0.359443 0.0900021 -2.30104
81 1 5.88855 0.309106 2.59448 0.357075 0.830783 -0.247372
82 1 9.28732 3.15385 7.3808 0.0891483 -0.649417 0.254926
83 1 3.42667 8.51142 4.32906 -0.509764 -0.947055 0.804916
84 1 0.690995 4.79345 7.44515 0.836408 0.71105 -0.0428865
85 1 2.13946 2.14062 3.06041 0.426258 -0.502909 -0.953789
86 1 3.33025 4.44628 8.60371 0.145644 0.206122 -0.667182
87 1 9.00798 4.44618 2.23468 0.582101 0.18804 0.456378
88 1 0.717894 1.76802 2.13757 -0.443099 -0.520393 -1.27103
89 1 4.33853 2.03412 1.86205 0.362784 0.182975 0.186032
90 1 7.21386 7.09642 2.2476 0.177594 -0.929612 0.567504
91 1 4.4976 2.65694 3.38771 0.468518 -0.257124 0.254545
92 1 0.708305 1.17989 8.58949 -0.825077 0.884657 -0.111666
93 1 3.91117 5.81996 2.64762 -0.454695 -1.07863 0.220076
94 1 4.74858 8.4363 0.924971 0.100313 0.0819528 0.558152
95 1 6.27364 6.13448 4.32064 -0.106177 -0.521615 0.115494
96 1 3.86565 8.58556 7.78547 -1.50463 0.397021 -0.77347
97 1 5.60482 4.77953 2.988 0.133852 -0.461166 0.629389
98 1 8.56135 8.62124 2.80644 0.17047 0.850075 -0.0679014
99 1 1.04984 9.30319 2.63041 0.426228 -0.566538 0.85537
100 1 6.8567 0.291794 7.85538 0.577579 0.634584 0.183873
101 1 8.71099 5.23349 0.811783 0.109473 0.567263 0.12499
102 1 7.52545 6.34026 8.64996 0.381051 -0.743286 1.19753
103 1 4.82788 0.490509 2.19785 -0.0490556 -0.88411 0.230306
104 1 8.75591 0.0986829 1.16914 0.159702 -0.358529 -0.0438305
105 1 7.51893 8.99305 8.22686 0.000412545 1.06902 -0.538439
106 1 4.0152 3.02989 7.86598 -1.25159 0.776201 0.821766
107 1 1.27913 7.09459 1.52718 -0.736913 -0.321705 -0.18367
108 1 9.03456 5.54541 9.15613 0.0345561 -0.927507 0.225095
109 1 5.35614 1.69576 6.70986 0.273434 0.0584894 1.02755
110 1 2.83781 7.8398 6.7129 -0.110431 -0.930147 -0.245938
111 1 2.29634 0.196729 0.671633 0.394131 0.0819663 -0.705331
112 1 1.29344 5.97121 5.18466 1.02171 0.885531 -0.777804
113 1 9.30483 9.02826 7.48153 0.280811 -0.0707708 0.217241
114 1 2.17557 6.37475 4.77929 -0.0775557 0.641835 0.363817
115 1 5.95347 8.56017 6.94114 -1.54985 0.382526 0.313513
116 1 2.25116 7.78549 2.94317 -1.99954 0.0653975 -1.08863
117 1 7.23674 8.17938 9.19395 0.0588937 0.327601 -1.03616
118 1 0.393538 0.309573 8.11714 0.127958 0.318393 0.910712
119 1 7.58588 0.00890682 2.91644 0.448109 0.6607 -0.510972
120 1 7.47427 6.69668 0.229084 0.150055 -0.279487 -1.0764
121 1 5.87873 5.85577 8.7025 -0.0582938 -0.650931 1.28591
122 1 0.166825 8.80064 0.963141 -0.157663 0.201997 0.76209
123 1 1.61712 2.45001 6.815 -0.180269 0.406365 -0.474257
124 1 3.47761 6.62678 3.38224 0.356536 0.015295 1.26221
125 1 0.715641 2.22557 4.1198 0.511358 -0.635609 0.53908
126 1 0.301905 7.10688 6.84725 0.998809 -0.9884 -0.347366
127 1 1.71148 0.146963 4.59417 -0.949259 -0.387249 0.272759
128 1 4.92084 2.8589 5.5057 1.40666 -0.417679 0.0252103
129 1 4.82474 4.89004 1.1341 -0.474761 -0.0839833 0.040825
130 1 8.21231 0.820186 5.79602 -0.544297 0.320051 0.977917
131 1 9.06223 0.792531 5.05201 0.201361 -0.837372 0.272475
132 1 6.76002 3.67708 4.13906 -0.823267 1.12317 0.0636821
133 1 3.7645 3.88377 4.33371 0.402365 1.15336 -1.27322
134 1 6.25428 2.2614 0.385563 -0.113994 -0.93742 0.641741
135 1 8.47272 1.71174 5.23454 -0.192663 1.6299 0.760743
136 1 3.83059 5.80703 4.11525 -0.0474752 0.763749 -0.168227
137 1 2.91668 2.74158 7.79615 -0.441296 -1.12091 -0.464748
138 1 1.50208 6.98226 5.60163 -0.380149 -0.058257 0.862836
139 1 0.749356 0.232762 5.11134 0.578514 -0.354893 -0.193707
140 1 1.21648 3.85124 3.37112 0.466633 -0.21693 -0.585584
141 1 2.40612 3.17899 6.4656 1.05581 -0.805134 -0.105825
142 1 3.46648 3.64204 6.32551 -0.525919 -0.838257 0.777329
143 1 3.08398 6.22602 8.70878 -0.405058 -1.11947 0.208543
144 1 8.82598 8.55593 1.72165 0.273274 -0.650825 0.778441
145 1 0.561993 6.51243 7.77374 0.609012 0.370003 0.406857
146 1 5.66053 8.93155 1.09091 0.326135 0.552137 -1.05532
147 1 1.35211 7.329 6.56952 0.832079 0.844115 -0.539219
148 1 8.94328 4.7137 8.46514 -0.585308 -0.127546 0.807147
149 1 1.9098 6.78339 2.86665 0.513207 0.860045 0.885942
150 1 1.02006 7.41062 7.61024 0.85506 -1.177 0.446824
151 1 3.94349 8.32684 5.21915 -0.845174 -0.542686 -1.00479
152 1 4.40493 9.04671 2.86522 1.33862 0.499229 -1.77641
153 1 8.99841 2.84142 2.89946 -0.351648 1.07413 -0.857273
154 1 5.90319 6.81876 7.38357 -0.340139 0.351192 0.717445
155 1 5.33534 1.13206 5.65567 -0.541138 0.138589 0.0200239
156 1 3.97415 0.57323 2.8018 -0.629493 -0.108921 0.5602
157 1 8.5476 9.36103 8.0249 0.134368 -0.834636 -0.265043
158 1 0.606496 8.59364 4.9342 -0.740065 0.0868728 -0.64905
159 1 6.09145 7.70059 4.07642 -0.414173 0.077318 0.309797
160 1 9.10079 1.29595 0.908665 0.445121 -0.689579 -0.592865
161 1 2.31971 5.11632 0.762939 1.30286 0.193093 0.976275
162 1 7.26347 4.57642 8.37736 -0.0474011 -0.0391719 0.0384308
163 1 6.57521 5.35774 8.11552 0.687286 0.485221 -0.875374
164 1 1.74957 5.7474 2.83669 0.658352 0.285101 -1.19036
165 1 3.44252 1.45182 8.71485 0.883444 -0.0908827 -0.201832
166 1 8.16402 5.25061 3.97781 0.245318 -1.36495 1.5529
167 1 0.442264 8.96188 0.0582301 0.635387 1.82405 0.699143
168 1 7.02219 5.03505 0.552555 1.40128 0.231273 -1.29907
169 1 0.197347 5.45867 8.06899 -0.315044 -0.584375 0.441862
170 1 2.33214 7.21461 4.06746 0.223904 0.722264 -0.0634852
171 1 0.957367 5.28763 2.18247 -0.014075 -0.84041 0.0145645
172 1 6.51237 6.47543 9.29084 -0.261461 -0.613243 -0.729636
173 1 6.07195 8.86949 2.01489 0.455081 1.02083 0.281018
174 1 2.18382 3.40872 7.40092 0.508496 0.85689 0.106753
175 1 4.07126 0.0174122 0.0709918 -0.264299 0.865157 0.181376
176 1 3.2838 7.68164 3.70853 -0.668462 0.673723 0.751363
177 1 1.00194 0.388764 9.15094 -0.85873 -1.21723 0.805258
178 1 4.1684 6.30208 6.02036 0.231849 1.22734 0.901565
179 1 6.87955 3.93864 9.34868 -0.484891 0.0811637 -0.381212
180 1 4.43846 7.32418 6.82269 -0.497606 0.199567 -0.824402
181 1 7.8484 5.72474 0.370149 -0.265612 0.236755 -1.00793
182 1 5.58423 7.8587 2.07154 -0.299078 0.230148 0.567536
183 1 4.68238 7.02275 8.7817 0.264889 -0.0409429 0.956343
184 1 8.19619 6.66629 6.98166 0.413913 -0.150049 0.639279
185 1 8.1448 2.02078 4.23771 0.466967 0.232894 0.0212229
186 1 7.58821 7.28031 5.0515 0.237108 -0.540294 -1.41952
187 1 8.1124 4.4685 1.54187 -0.371104 0.56101 -0.138281
188 1 9.2192 6.69132 8.5062 -0.526005 0.234651 0.21076
189 1 8.00686 3.55726 5.01888 -1.48969 0.945985 -0.1242
190 1 8.86456 3.83918 3.35582 0.991339 0.75273 -0.438387
191 1 6.95511 2.82517 8.30353 0.432637 -0.130595 0.29735
192 1 8.20039 5.55589 6.98254 -0.190706 1.11822 -0.317449
193 1 4.107 7.36275 5.52703 1.00094 0.60099 -0.455682
194 1 5.23193 0.972449 7.43069 -0.152741 0.805986 0.728498
195 1 0.415934 8.19662 7.91777 0.245413 0.588257 0.603661
196 1 5.595 6.7992 1.61204 -0.327868 -0.858868 0.983237
197 1 3.87341 3.31839 5.28949 0.381853 0.762409 0.83182
198 1 0.910392 4.69568 6.38057 0.368465 -0.747562 1.2909
199 1 8.34163 5.87392 5.92511 0.809364 0.393385 0.551129
200 1 4.88718 7.98616 5.36054 -0.633468 -0.231318 -0.277259
201 1 0.233445 3.20393 0.639179 -0.69282 -0.805998 -0.412067
202 1 8.99976 3.68638 4.45032 0.758088 0.749228 -0.108009
203 1 9.31423 5.80192 6.31304 0.313851 -0.477925 1.22631
204 1 7.1975 1.7157 4.68389 -1.21197 1.1443 -0.158254
205 1 1.22301 8.9409 6.51836 -0.0702001 1.06886 -0.0434016
206 1 4.9997 9.09363 3.765 0.606904 -0.0226274 -0.0466245
207 1 7.16333 4.83084 7.28979 0.257945 0.205063 -0.0448262
208 1 1.54292 4.01577 5.9581 0.296389 -0.0502581 -0.156168
209 1 6.54133 7.39423 1.50792 0.505462 -0.344117 -0.641661
210 1 1.54401 5.23796 8.85235 -0.477571 0.281644 0.329114
211 1 3.96129 2.26429 5.15613 -0.857449 0.367284 0.0852059
212 1 4.04852 4.0716 1.78701 -0.955259 -0.244961 1.43254
213 1 4.00473 2.58196 6.15077 -0.743536 -0.707483 -1.16826
214 1 0.760125 6.39425 0.380083 0.178281 0.337026 0.304881
215 1 7.02445 7.22887 8.8075 -0.373334 0.416024 -0.118593
216 1 3.55605 2.48567 8.79728 1.6021 -0.175451 1.32546
217 1 5.6509 1.03573 1.84549 0.472896 0.246086 0.454525
218 1 0.295182 2.91897 8.42498 0.403282 -0.418999 0.611691
219 1 4.65113 2.23074 0.840402 0.67824 -0.840704 0.288229
220 1 8.80564 3.45264 8.39916 0.333523 0.0389947 0.922421
221 1 6.58263 2.74112 3.54112 0.0551039 -0.568595 0.520214
222 1 5.13381 5.27908 6.7831 -0.35794 0.106784 -0.29697
223 1 8.58421 5.35983 1.86949 -0.106163 -0.825597 0.0799337
224 1 5.60373 7.69398 1.02739 0.895191 0.830172 -1.41957
225 1 2.67934 1.75008 3.93715 -0.0963093 -0.217666 -1.24859
226 1 8.09379 7.56889 6.16169 1.07018 1.35861 0.463285
227 1 3.18167 3.87777 2.45835 -0.555502 -0.251062 -1.60148
228 1 8.6485 8.32718 7.93078 -0.412319 0.149166 -0.0368436
229 1 2.92392 7.39867 0.509347 -0.891487 0.383683 -0.989843
230 1 3.50822 0.537815 6.52785 -0.53145 -0.0949311 -0.668901
231 1 3.57165 7.59051 7.37126 1.15858 0.246592 -0.291535
232 1 1.66791 8.21301 7.93947 0.775952 -0.0629172 -0.277546
233 1 7.72925 7.90556 8.33068 0.405653 0.004564 -1.45539
234 1 5.27475 2.50421 9.37176 -0.561074 0.425148 -0.105893
235 1 0.736703 5.20181 4.49325 0.365405 -1.84692 0.706136
236 1 7.30677 5.80901 6.32379 -0.369671 -0.0823885 -1.56496
237 1 7.64076 3.458 7.03122 0.671156 -0.273096 -0.876913
238 1 4.14399 1.79939 9.39886 -1.65649 -0.577662 0.00613727
239 1 8.92451 4.15447 1.08661 0.420414 0.982971 -0.621734
240 1 4.69816 9.05733 4.88524 0.429591 0.0484825 -0.105317
241 1 5.47323 6.03912 3.19053 -1.05669 0.667783 -1.24258
242 1 8.01754 3.41747 2.89971 1.10344 1.10176 0.914524
243 1 1.17217 0.805243 2.11003 -0.369779 -0.941375 1.07675
244 1 7.98554 4.0428 7.92101 -1.30564 -0.0304166 0.937837
245 1 7.22779 5.0477 2.86064 -1.43055 1.1499 0.0643448
246 1 2.47478 6.8981 9.14696 -1.24311 0.0287415 -0.473042
247 1 1.48249 1.98944 1.43987 -0.343147 0.767357 0.178184
248 1 9.29413 8.94102 8.55876 -0.299506 0.4444 -1.23221
249 1 1.40675 7.00003 4.45457 1.13013 -0.615793 -0.164775
250 1 2.11292 8.92178 2.70167 -0.378756 0.644849 0.455634
251 1 2.1141 7.32706 7.35901 -0.562095 0.901338 0.432443
252 1 3.67642 3.22764 3.53696 -0.295107 0.88029 -0.524221
253 1 0.811706 6.34344 6.22119 -0.0933206 -0.619722 0.0986452
254 1 5.58619 1.47081 3.95537 -0.680998 -0.777268 0.894964
255 1 8.94007 8.22318 0.276075 -0.520447 0.275453 0.488021
256 1 8.88578 7.72688 8.7106 0.599082 1.07983 0.800979
257 1 4.98095 0.656728 4.72363 -0.801584 -0.400332 0.292032
258 1 4.34918 1.49676 2.93406 -1.16702 0.709555 -0.0862272
259 1 2.88766 5.58764 1.53664 0.384905 -0.464765 0.131813
260 1 5.0797 8.68575 7.82759 -1.57288 1.67962 0.546356
261 1 4.99536 1.47288 8.73778 0.625415 -0.883873 -0.637838
262 1 3.18231 4.32606 3.41414 -1.47967 0.0340396 -0.201735
263 1 5.34658 4.05923 5.48559 -0.0824386 0.263181 0.876341
264 1 5.94838 2.71174 2.37678 0.233602 -1.27953 0.0598217
265 1 7.37675 5.8104 3.67527 -1.10677 -0.0506931 -1.6011
266 1 8.63562 6.30207 2.31958 -0.534181 0.273624 -0.833233
267 1 3.5675 8.51176 0.0577806 -0.0137312 -1.35729 0.0108319
268 1 5.87623 3.26248 6.71187 0.373341 -0.332113 -0.659357
269 1 8.22944 6.15803 1.33057 1.66411 -0.570067 -1.30121
270 1 7.92994 3.40143 6.02376 -0.410501 0.0611337 -0.859348
271 1 3.02859 0.224747 3.28311 -1.379 1.78477 1.5771
272 1 6.4716 4.09967 5.79222 -0.132747 -0.288808 -1.15134
273 1 8.62092 6.20005 3.55843 0.883098 -0.700194 -0.929083
274 1 6.51328 3.3003 0.681276 -0.883926 -0.23686 -0.0550286
275 1 2.73697 8.18554 7.82384 -0.27935 -0.782683 -0.384825
276 1 5.60425 7.27344 0.0798513 -0.59026 -0.251359 1.22415
277 1 6.14117 4.51987 4.77145 0.443476 -0.160251 -0.360303
278 1 1.20623 4.90541 1.13683 0.90525 -0.162696 1.45408
279 1 9.33038 7.30865 0.253233 -0.332943 0.597645 0.223823
280 1 5.58275 0.167458 7.87106 -0.0818997 -0.141163 0.479753
281 1 6.00308 6.78813 3.53779 -0.556047 0.761428 0.577691
282 1 3.15621 6.58925 4.34117 0.320371 -0.117919 -0.293721
283 1 8.84767 6.82701 6.17335 0.874505 0.820518 0.66924
284 1 3.695 0.46458 8.56604 0.338544 -0.0882424 0.411309
285 1 4.44988 4.55693 8.63297 -0.345084 0.423355 -0.751873
286 1 2.56161 0.546516 7.03187 -0.0387327 0.344457 -0.492612
287 1 8.60024 3.44838 2.05221 -0.431312 -0.866896 -0.229719
288 1 3.99555 9.34249 1.90967 -0.553285 0.791753 1.07472
289 1 6.40847 4.3803 2.352 0.0247139 0.438162 1.08141
290 1 2.20696 5.10837 3.54073 0.908375 0.706069 0.470167
291 1 1.42674 0.54561 7.04913 -0.154034 0.25174 0.334647
292 1 1.88171 5.27198 4.74816 0.738098 0.39744 0.959753
293 1 3.34892 7.616 4.74878 0.434501 0.412942 0.132904
294 1 3.71779 6.50316 7.22115 1.43361 -0.336701 -0.00321012
295 1 3.62327 6.0096 5.15966 0.254469 0.241275 0.0724778
296 1 5.50694 3.43274 4.71527 0.612985 0.234486 0.167379
297 1 4.13623 3.41763 8.87076 -0.439232 0.793417 -0.00184949
298 1 7.97869 2.23457 0.53453 -0.249775 0.732413 0.872545
299 1 0.586569 8.00258 1.44418 1.7593 0.119667 -0.106251
300 1 6.22876 1.47203 1.11807 -0.256991 0.447487 0.797342
301 1 0.720521 2.17309 7.87952 0.0865506 0.466817 0.388552
302 1 6.50557 8.33059 6.14025 -0.0419256 0.175374 0.477499
303 1 4.49155 4.4713 6.82445 0.725974 -0.827252 -0.788201
304 1 6.51321 1.23118 0.183812 0.3999 -0.18532 -0.631984
305 1 1.51333 4.47334 0.235875 -1.05936 0.919759 -0.737277
306 1 8.70863 0.165539 6.86768 0.160138 -0.505703 0.419612
307 1 4.69414 6.30483 1.75735 0.838867 -0.309918 0.627406
308 1 6.14751 8.85488 3.89491 1.34923 0.154075 0.160066
309 1 3.56048 5.01703 4.85996 1.07106 0.252961 0.678866
310 1 9.10905 2.39905 3.86539 -1.13353 0.272807 -1.72411
311 1 5.73974 2.19998 8.33858 0.23602 -0.554947 -0.160387
312 1 4.03936 6.92116 2.33747 -1.95051 -1.3854 -0.90785
313 1 9.05614 7.72886 1.14986 0.0183815 -0.970559 0.308762
314 1 5.62994 4.74459 8.14476 -1.68174 -0.394841 0.654954
315 1 5.95696 5.82625 6.55223 0.953889 0.151665 -0.871229
316 1 1.12976 8.42167 3.11741 -0.111658 -1.47953 -0.121133
317 1 3.72911 2.78437 0.513855 -0.672874 -0.0558725 -0.177732
318 1 0.270663 2.57448 5.38889 0.163022 0.33195 -0.202811
319 1 7.5231 8.40717 6.46971 -0.0936293 -0.0106405 -0.570873
320 1 8.11125 2.457 2.21071 -0.239032 -0.656254 0.855723
321 1 4.59604 8.8559 5.97557 -0.325358 -0.909444 -0.00230085
322 1 0.371408 0.511019 7.05631 -0.530059 0.124799 0.334179
323 1 3.31193 5.37737 3.33599 -0.395549 -0.96656 0.648108
324 1 5.40939 1.58435 0.392976 0.538656 -0.268258 -0.87776
325 1 5.01597 1.87753 4.909 0.271595 0.250348 1.06099
326 1 7.76349 9.29281 7.22731 0.262417 0.159487 0.419397
327 1 0.766875 6.99644 8.86945 -0.788054 0.789718 0.530056
328 1 4.55664 5.30689 2.0659 -0.00901904 -0.930269 -0.151643
329 1 1.93842 3.62305 4.48202 -0.121645 0.25646 0.28334
330 1 3.29891 2.64596 4.41508 -0.720262 0.802181 -0.213469
331 1 4.48113 3.71094 6.02461 -0.457279 0.85587 1.49615
332 1 1.53416 4.12757 7.15984 -0.0637657 -0.169667 1.67016
333 1 6.3689 6.40477 0.919796 0.409285 -1.22179 0.281148
334 1 3.48562 0.144947 7.53681 -1.01188 -1.01069 1.84528
335 1 3.80384 1.5282 0.974098 0.641804 -0.0971019 0.764556
336 1 0.832382 0.410871 6.06839 0.592655 -1.40038 -0.607508
337 1 8.65086 3.58734 0.19681 0.982619 0.387464 -0.281409
338 1 5.97596 2.00516 3.19812 0.165094 -1.11946 1.01908
339 1 8.34939 8.64127 8.90748 -0.576158 1.31072 1.13943
340 1 2.75372 4.86118 2.62707 -0.601098 0.358945 0.943261
341 1 1.52662 1.14936 0.280289 0.990171 0.584757 0.700469
342 1 3.79498 7.97611 8.58098 -0.887733 -0.478317 1.31761
343 1 2.14084 3.21006 2.80423 0.152952 -0.0902676 0.293561
344 1 3.17604 0.855063 4.50268 0.48919 0.292689 -0.80978
345 1 7.01648 8.41033 4.32718 0.208807 0.914208 0.175546
346 1 0.624537 5.76561 7.05559 1.98584 0.319851 0.973432
347 1 9.01284 4.18828 7.58803 -0.0208636 -0.449703 -0.85608
348 1 5.03733 3.02088 7.59091 0.0838796 -0.271203 0.0164478
349 1 3.97175 0.983362 1.79328 0.00254218 -0.153404 -0.47037
350 1 4.91775 3.58573 3.91012 -1.07191 -0.529855 -1.37206
351 1 7.09817 9.10179 1.97665 -0.394678 0.674224 0.448993
352 1 5.15392 5.16753 8.95913 0.435225 -0.592734 -0.381276
353 1 1.3416 1.17087 4.66089 0.757768 -0.695612 -0.34909
354 1 2.66614 0.508284 8.094 -1.34199 -0.225725 0.839149
355 1 8.80902 3.81144 6.60699 -0.200275 -0.485028 -0.0250802
356 1 0.479453 4.29926 0.526779 -0.16223 1.27621 0.514918
357 1 5.47231 2.91201 1.04703 1.04942 0.257779 -0.134273
358 1 1.00101 8.83814 8.61657 0.544234 0.0634969 1.48241
359 1 3.20927 3.5017 1.40094 0.28963 -0.660794 -0.680701
360 1 6.06209 3.07124 5.56378 -1.47175 -1.00141 0.208984
361 1 3.52213 1.78167 2.42888 -0.261766 -0.0861455 0.209655
362 1 6.60729 3.25991 1.70596 0.392678 0.0189642 -0.782064
363 1 8.2921 7.38507 1.93616 0.281021 -0.410717 -0.0696035
364 1 4.3233 1.14822 8.01477 -0.976243 0.319418 -0.254235
365 1 1.12822 8.85543 1.52146 0.207761 -1.38691 0.11182
366 1 6.76605 7.88098 5.19693 -0.736323 -1.13349 0.140342
367 1 7.91942 0.97872 4.80261 -0.71638 -0.0109578 -0.825483
368 1 2.33632 7.28855 1.50355 -0.0389665 -0.500072 0.980649
369 1 7.78058 2.49139 5.21974 -0.0447961 -0.515772 -0.0140982
370 1 4.84539 1.24227 1.18292 -1.64959 -0.452847 -0.175459
371 1 8.2188 0.879621 2.66967 -1.02885 0.80834 1.03118
372 1 5.08874 9.33989 0.199618 -0.47723 -0.582982 -1.36695
373 1 8.03438 0.913035 6.85485 1.69741 -0.276168 0.426103
374 1 6.95618 6.77772 3.93218 -0.0428443 -0.476731 1.37228
375 1 5.16108 5.7724 5.81725 0.763661 -0.459361 0.375589
376 1 2.47865 1.63257 7.75831 0.543929 -0.912768 -1.08947
377 1 2.79653 5.34639 8.1701 0.31472 -0.385652 -0.0871038
378 1 8.11895 9.34057 2.06721 -0.201332 1.29378 1.10221
379 1 8.93683 3.65856 5.4687 0.678079 0.651052 0.0170909
380 1 8.67371 7.2289 2.87477 -0.407209 1.10985 0.792174
381 1 1.62082 5.35532 7.03115 1.1189 -0.0010723 -0.342162
382 1 6.58305 2.0459 1.89658 0.12366 -0.0890347 -0.786879
383 1 7.058 2.49195 1.05374 0.541999 1.30288 -1.40102
384 1 7.0899 8.4464 1.25537 -0.638864 -0.358815 -0.658444
385 1 5.03221 8.84976 1.97393 0.047971 -1.70492 -0.749368
386 1 0.487543 2.20458 1.05127 -0.717541 -0.0402142 -0.655432
387 1 7.51178 1.70208 2.56431 -0.834685 -0.406182 -0.10821
388 1 4.8534 6.03151 8.46018 0.479799 0.230648 -0.0832424
389 1 7.39079 4.24916 6.27326 -0.200862 -0.318494 0.552414
390 1 8.3481 4.52597 4.83175 -0.607058 1.12056 0.522631
391 1 4.67297 0.907523 0.199761 -0.174742 -0.154145 -0.195818
392 1 2.24349 0.772997 3.86643 0.0371346 0.0498441 0.501132
393 1 4.48749 0.208458 7.69983 0.585659 -0.908963 -0.763278
394 1 9.29413 4.61652 6.11527 0.870445 -0.421399 -0.749975
395 1 8.02428 5.34343 8.86884 1.59881 0.737012 0.584308
396 1 2.90425 1.80901 5.01956 0.670826 -0.0488409 -1.378
397 1 7.0276 3.19248 5.20247 -1.63034 -0.657251 -0.938509
398 1 7.49838 6.89104 1.26249 1.02729 -0.219986 -0.260544
399 1 2.09402 1.38572 2.24474 -0.572789 -0.479036 -0.876426
400 1 6.81914 8.06253 2.34283 -0.178149 1.07552 -0.011391
401 1 3.38388 1.71229 5.95121 0.319578 0.9107 0.398207
402 1 7.36592 0.306772 5.32583 0.194689 0.447612 -1.24802
403 1 0.8478 3.00971 1.55681 -0.0953687 -0.263842 -0.277142
404 1 5.05054 6.88957 2.52568 -0.728778 -0.337251 -0.564351
405 1 4.13297 1.70004 6.86014 0.0504219 -0.0620464 -1.04812
406 1 2.22638 4.21426 5.25068 -0.168266 -0.170839 -0.458162
407 1 5.40408 8.31009 0.195418 -0.105279 -0.719361 -0.243399
408 1 4.67047 2.61566 8.46104 0.372558 0.0478926 0.417844
409 1 2.85102 1.31079 2.94465 -0.270733 -0.0657618 0.322126
410 1 0.581441 3.88715 6.87883 -0.830767 0.509706 -1.24576
411 1 6.58763 8.98417 5.26463 -0.536796 0.185769 -0.710177
412 1 5.77564 0.362337 3.62223 0.256973 -0.380441 -0.383775
413 1 2.00209 7.67214 0.537907 0.12965 -0.644412 0.902856
414 1 1.39766 7.48674 3.43572 1.00939 1.1241 1.37656
415 1 1.38179 3.80723 1.19372 -0.985509 0.0918732 0.404025
416 1 0.0395096 8.72051 3.49027 0.810778 -0.547581 0.770338
417 1 1.38279 7.87075 5.01493 -0.423027 0.00809427 0.327461
418 1 3.31102 0.455424 1.02123 0.740107 0.14103 0.150761
419 1 7.65003 2.49439 3.32075 -0.249126 -0.954729 0.395409
420 1 9.36756 1.81843 4.71765 -0.906695 -1.15732 0.176575
421 1 7.80989 8.32527 2.08941 0.0417521 -1.45679 -0.203112
422 1 3.09481 2.6926 5.56791 0.384257 0.868527 0.046348
423 1 8.02366 7.64497 0.0640165 -0.145509 -0.951002 -0.729593
424 1 7.50812 8.49274 5.48067 0.4059 0.387867 -0.535916
425 1 1.61881 2.01482 5.37644 -0.30257 -0.049251 1.20163
426 1 9.07077 0.864925 8.67314 0.846657 -0.175039 -0.268471
427 1 6.56125 5.7688 5.57086 -0.521271 -0.15062 0.703234
428 1 3.31483 2.81163 6.85376 -0.0182307 0.042391 0.23073
429 1 4.69165 3.29536 0.379493 1.01912 1.0739 -0.469137
430 1 2.42394 8.75276 6.08257 0.462021 0.723697 -0.492537
431 1 9.05596 7.39029 7.65009 0.521688 0.837434 -0.719401
432 1 6.25676 0.776849 7.07905 -0.00308848 -1.09007 0.172567
433 1 3.69825 2.04691 7.73293 0.411231 -0.141844 0.111304
434 1 4.81465 4.27052 2.48912 -0.289167 -0.12898 1.0479
435 1 2.06642 0.5155 2.72041 0.48824 -1.11823 -0.0124574
436 1 2.08527 3.41581 9.08506 -1.26567 -0.229247 0.0203179
437 1 8.15949 5.08973 7.86743 0.184869 0.205112 0.379653
438 1 1.72437 9.09333 0.0538584 0.635554 0.186792 0.966511
439 1 5.20377 6.25096 4.13812 0.37443 -0.284895 -0.0561223
440 1 0.521685 4.54363 2.69866 -0.0569469 -0.531445 0.109775
441 1 9.27837 0.848593 2.29877 0.365671 -1.08628 1.1808
442 1 4.78834 6.85452 0.737367 -0.106791 -1.76891 1.11228
443 1 3.84512 6.8728 8.13238 0.072877 0.288191 -0.458651
444 1 7.95364 6.55363 4.21388 0.508109 0.212428 -1.35403
445 1 4.82665 0.427476 8.63831 -2.00314 0.684207 -0.035024
446 1 7.51079 5.87546 2.22189 -1.15012 -0.137555 0.875994
447 1 1.01112 7.41166 0.467982 -1.01633 -0.606437 0.25492
448 1 4.55806 7.71063 7.90542 0.86348 -0.811414 -0.083347
449 1 2.36273 1.48157 8.77869 -0.497834 0.671731 -0.552416
450 1 2.0517 9.14281 7.41381 0.590971 0.356709 -0.0809553
451 1 6.87668 0.748946 8.71814 0.436702 0.89135 -0.544673
452 1 5.598 6.7859 8.32475 -0.648553 0.773269 0.0861873
453 1 5.33257 7.89057 8.51779 -0.489631 0.450147 -1.51041
454 1 5.63748 6.5304 5.1068 0.82925 0.850478 0.296107
455 1 4.16027 5.56639 6.82133 -0.25269 -0.85191 1.66027
456 1 0.902949 6.33193 2.17853 0.644682 0.96797 -1.0504
457 1 4.79222 4.27533 0.134704 -0.372842 -0.376524 1.21336
458 1 8.53713 7.44263 4.48572 0.767274 -0.373117 -0.739616
459 1 2.82773 7.00318 2.46644 0.120593 1.15409 0.0445354
460 1 8.45189 2.71245 8.94396 -0.120326 -0.722203 0.513693
461 1 8.87888 4.92308 3.21651 -0.143774 -0.90235 -0.26849
462 1 0.952484 6.54234 3.42196 -0.201262 0.0550481 0.932263
463 1 2.17664 0.477807 8.97882 -0.747152 0.055884 1.12452
464 1 9.1186 6.15204 0.630191 -0.490594 -1.48334 0.547693
465 1 1.56524 8.22069 2.12386 -0.448612 0.277346 -0.371783
466 1 8.05003 7.93446 1.08049 -0.730185 -0.621232 -0.259301
467 1 5.3392 1.16968 2.95367 -0.196219 -0.202043 0.0503685
468 1 6.62357 8.91994 2.87947 -1.26921 -0.349033 -0.000275933
469 1 2.48174 1.94595 1.1557 0.406152 -0.995509 -0.0815808
470 1 6.96858 5.50225 4.62429 0.0459803 -0.390362 0.745857
471 1 2.54143 8.46025 0.276101 -0.554673 -1.24879 0.45668
472 1 2.30924 7.03109 6.35006 -0.441405 0.567809 0.31917
473 1 9.03201 1.16962 6.87626 -0.172928 -0.561019 0.606597
474 1 6.68119 1.767 8.49499 0.355377 -0.121739 0.927463
475 1 4.44912 8.78825 8.70178 0.0713258 1.81989 0.71386
476 1 2.8052 5.59939 4.35027 1.23255 -0.0283589 -0.683514
477 1 8.26419 6.90892 8.11692 -0.00717794 -0.821199 -1.00029
478 1 5.83225 9.36924 4.69673 -1.09874 0.788957 1.32236
479 1 7.3846 0.678483 2.11243 -1.11316 0.64493 0.691452
480 1 6.08026 6.83095 6.38718 0.516469 1.03331 -1.36997
481 1 2.62802 4.46305 4.28887 -0.814251 0.542978 0.922587
482 1 4.55751 6.36579 5.02058 0.322636 -0.810112 -1.08559
483 1 0.98804 5.13914 3.39161 0.626232 -0.437473 -0.48533
484 1 0.20856 3.74597 9.1077 0.127747 0.323911 0.291079
485 1 6.73411 5.76223 7.20968 -0.454401 -0.862478 0.652241
486 1 1.62842 4.61427 2.76234 0.7943 0.919849 -1.21884
487 1 0.634098 6.24552 4.4585 0.961304 -0.617481 0.286617
488 1 6.67128 2.24124 5.58066 -0.657796 0.590782 0.16926
489 1 6.32827 8.43871 0.554668 -0.498077 0.168529 -0.60627
490 1 5.46248 5.75731 2.06221 -0.238805 -0.762834 -0.539755
491 1 4.66047 5.22401 3.12863 -1.66197 0.683558 0.568789
492 1 1.50617 8.94684 5.44581 0.258234 -1.04321 0.0898308
493 1 8.01672 4.55962 0.444953 0.205411 0.211648 -0.398315
494 1 4.23351 4.12183 3.3473 0.0482138 -0.45544 0.820067
495 1 3.1434 8.25807 1.13068 0.939958 0.487466 -0.397204
496 1 2.64199 0.0217188 5.28128 0.757033 1.6262 -0.630752
497 1 6.46179 7.63772 6.93002 0.497032 0.183395 -0.327736
498 1 2.57668 1.10635 0.33383 -0.677177 0.612368 -0.719001
499 1 3.60121 2.89806 2.31866 -0.194279 -0.292515 0.410695
500 1 6.65616 6.46238 8.12626 0.137404 0.742268 0.00949422
501 1 5.8106 4.16329 3.84918 -1.21859 -0.346336 -0.332353
502 1 7.7845 4.07366 4.09975 -1.29036 -1.27534 0.00874281
503 1 3.31402 1.12224 7.48896 -0.278075 0.263634 -0.161563
504 1 3.0703 0.428319 2.25916 0.88949 0.551761 0.762911
505 1 7.67606 3.32419 0.410752 -0.991718 0.258601 -0.574146
506 1 5.58453 5.78568 7.60827 1.81551 0.115289 -1.9222
507 1 5.50183 7.69699 7.47222 -0.473892 -1.17984 0.0178504
508 1 0.788576 8.07338 4.04466 -0.66128 -0.673452 -0.0602209
509 1 3.42216 2.34832 1.45145 -0.0263451 -0.911912 -0.613489
510 1 5.60031 4.85574 0.517401 -1.68617 1.12653 0.999198
511 1 6.22324 1.77649 7.5261 -0.859645 1.10827 -0.172929
512 1 1.93685 6.2559 1.87548 0.699126 -0.415545 0.141604
513 1 4.61868 7.38366 1.60506 1.10571 0.250282 -0.783624
514 1 8.10603 5.52377 2.95557 1.37618 -0.684451 0.0138539