ITEM: TIMESTEP
100
ITEM: NUMBER OF ATOMS
1000
ITEM: BOX BOUNDS pp pp pp
0.0000000000000000e+00 9.4000000000000004e+00
0.0000000000000000e+00 9.4000000000000004e+00
0.0000000000000000e+00 9.4000000000000004e+00
ITEM: ATOMS id type x y z vx vy vz
1 1 4.77738 0.072831 1.2422 0.831158 -0.605258 0.646362
2 1 8.04931 2.95633 7.8798 0.0333578 -0.898815 0.583527
3 1 0.317123 3.17519 3.68493 0.434979 -0.520488 1.94834
4 1 0.751457 8.12311 6.90971 1.04436 0.442277 0.850102
5 1 5.64848 2.12771 5.82713 -0.332349 -0.794359 0.0572105
6 1 7.10526 7.3073 5.96833 1.58688 0.238565 -0.267133
7 1 1.15817 8.40978 0.548964 0.25194 -2.03497 -0.414603
8 1 2.37129 2.19917 6.11054 1.45419 0.110643 0.334034
9 1 1.19191 2.84986 4.76619 0.0120599 0.263931 -0.197015
10 1 2.82437 9.13553 1.57633 0.0567532 0.385025 -0.336413
11 1 8.52598 6.94543 0.833076 0.233559 -0.51175 -3.23289
12 1 6.99046 2.96751 2.6 0.298401 -1.44262 0.667978
13 1 8.23446 1.82922 6.33576 -1.00331 -0.0485155 0.422237
14 1 3.66899 6.26547 1.6893 0.546225 -0.192862 -0.48357
15 1 7.64629 3.14997 1.45799 1.05541 0.776642 -0.158897
16 1 1.31061 3.11446 8.50347 -0.235631 -0.357887 0.251189
17 1 8.14679 4.44641 6.97295 -0.332246 -0.183861 0.101675
18 1 0.200236 3.5038 2.58402 1.18143 0.498487 -0.255583
19 1 6.22435 2.94637 8.98002 -0.182779 0.234958 -0.385805
20 1 4.24661 3.36994 6.94759 -0.239219 -0.0633512 0.908966
21 1 1.70341 5.19007 5.77326 0.139835 0.0772982 -0.210712
22 1 2.90292 3.61029 4.7759 0.134943 -0.579001 0.870943
23 1 5.12598 3.53869 8.77492 -0.160201 -0.957519 0.734059
24 1 2.3074 4.11975 8.26368 0.556418 0.604506 -0.534441
25 1 6.15534 2.90727 7.65037 -0.370007 0.256248 0.374098
26 1 2.08203 3.15337 5.44482 -0.380596 0.603544 -0.0262389
27 1 8.44968 0.971958 7.7518 0.236566 -0.380449 0.101316
28 1 4.45429 6.31428 3.38934 0.340204 0.569423 -0.647295
29 1 3.05846 0.047104 9.36338 -0.641014 -0.253917 -0.343508
30 1 7.27994 2.68904 4.26353 0.310838 -1.17192 0.3548
31 1 8.64519 2.92876 1.01831 -0.0922649 0.266027 -0.865142
32 1 4.29387 0.379062 5.59876 -0.238762 0.0249755 1.56843
33 1 1.80984 7.26591 8.47254 -1.65326 0.546201 -0.290874
34 1 3.47186 7.35282 1.64741 -0.000158472 0.569313 -0.766611
35 1 9.25054 0.635214 6.06543 -1.08593 0.55786 -0.0499768
36 1 6.55072 6.41588 1.97435 -0.936099 0.769078 -0.563777
37 1 8.55658 1.481 0.0242873 -0.291085 -1.07154 -1.34434
38 1 1.17046 1.57184 2.99739 -0.478074 -0.0416431 -0.242561
39 1 0.402436 0.944096 4.30885 0.774908 0.511252 0.294259
40 1 2.31888 4.0037 0.564204 -0.353213 1.44771 -0.577765
41 1 6.23314 0.000504753 6.21837 0.893826 -0.726038 -0.531716
42 1 1.36114 2.05201 8.7301 0.804447 0.123921 0.511272
43 1 1.89465 2.95983 1.63487 0.714044 1.55046 0.219328
44 1 7.37361 1.46737 5.74759 -0.592996 -1.09108 0.0711359
45 1 6.27882 2.39653 6.68268 0.359796 0.23753 -0.422517
46 1 7.79203 6.67207 3.08904 0.49505 0.574789 0.562825
47 1 6.09413 5.70208 0.291085 -0.158935 -0.41716 0.938636
48 1 7.66366 7.54864 3.97591 -0.581592 1.30123 -0.894929
49 1 3.45049 4.63505 6.70253 -0.310588 -0.100785 -0.171773
50 1 8.56302 7.96851 3.68698 -1.14613 0.895708 -1.36427
51 1 6.23695 7.26864 2.68852 0.171301 0.248984 0.829328
52 1 1.1697 3.49714 0.0859409 0.456433 -0.190941 0.270073
53 1 5.43211 2.90447 3.23844 0.0165612 -0.595938 -0.660936
54 1 0.0806842 6.40279 5.43267 -0.204454 -0.472029 1.00971
55 1 8.88157 5.35171 5.27978 -1.39998 -0.959638 -0.0459075
56 1 0.220834 4.51478 5.10761 0.101049 0.159164 -0.573584
57 1 0.00692229 8.87603 6.38542 -0.131919 0.257657 0.166277
58 1 5.16365 3.89367 1.2582 -0.426598 0.427341 -0.247353
59 1 0.419925 7.48114 4.71552 0.49825 0.252081 0.686381
60 1 0.428073 5.29014 0.511511 0.590032 0.0366505 0.12986
61 1 5.58513 8.96395 8.73756 -0.268228 0.802934 -0.860346
62 1 0.360468 0.212244 1.59027 0.688797 -0.577054 -0.0607165
63 1 7.39169 7.17854 7.74425 0.30482 0.0584737 -0.32675
64 1 3.4045 5.43227 9.05171 0.667761 -1.15722 0.572275
65 1 2.3443 2.5202 8.76738 1.27672 -0.262298 -0.899018
66 1 6.26048 4.77501 9.07737 0.260405 -0.0499358 -0.151189
67 1 6.45093 5.4339 2.30249 -0.429746 -0.249702 1.0087
68 1 4.21624 5.1705 0.19786 0.318079 0.0101115 0.91179
69 1 2.47303 2.96738 0.691535 1.06543 -0.180661 0.729377
70 1 0.181297 1.42972 3.42609 -1.19991 -0.287281 0.246571
71 1 7.16582 5.83391 1.21929 0.619237 0.399486 0.884059
72 1 7.14728 4.87814 1.69531 -0.770937 0.312069 -0.144333
73 1 2.11232 8.54355 1.17506 0.406016 0.875936 1.02323
74 1 4.68353 5.05585 7.70651 0.361713 0.498076 -0.154665
75 1 8.28874 9.26302 5.06593 0.866098 0.680007 -1.01221
76 1 6.83583 7.99556 3.40842 -0.37071 -0.407946 0.917852
77 1 4.6728 4.00459 7.80523 2.37769 -0.781619 0.792146
78 1 2.44138 4.9366 9.11238 -0.0378506 -1.45628 -0.113426
79 1 7.74369 7.71196 2.91989 -0.102251 -0.2235 0.376029
80 1 0.0846512 6.52494 2.97982 0.0290677 -0.165045 -0.731754
81 1 5.87212 0.274969 2.59937 0.124804 0.500433 0.113535
82 1 9.28499 3.18867 7.38664 -0.0864906 -0.62547 -0.488119
83 1 3.46222 8.55416 4.31538 -0.946408 -0.438722 -0.260983
84 1 0.664104 4.74205 7.43899 0.238511 1.1531 0.215935
85 1 2.12626 2.16153 3.09866 -0.0850936 -0.215301 -0.369102
86 1 3.32006 4.41894 8.65769 0.218041 0.720501 -1.2381
87 1 8.97293 4.42723 2.21969 0.584815 0.381891 0.130616
88 1 0.71243 1.7803 2.13363 0.611408 -0.0174153 1.3845
89 1 4.34656 2.02876 1.84724 -0.679442 0.0298143 0.457192
90 1 7.22616 7.13445 2.24322 -0.640871 -0.303429 -0.482556
91 1 4.48563 2.64206 3.37398 0.0114699 0.871766 0.379389
92 1 0.741081 1.15644 8.55086 -0.484886 -0.174495 1.53165
93 1 3.92717 5.90175 2.6288 -0.124353 -1.88949 0.567794
94 1 4.74536 8.43938 0.937392 0.168813 -0.351502 -0.992224
95 1 6.26246 6.16717 4.30117 0.266714 -0.505172 0.51327
96 1 3.94137 8.59516 7.77754 -1.38692 -0.975825 1.24466
97 1 5.62193 4.78766 2.94323 -0.985545 0.178445 1.01694
98 1 8.53014 8.58833 2.81285 0.961105 0.529315 -0.270008
99 1 1.02222 9.34403 2.57758 0.663866 -1.03455 1.23513
100 1 6.79998 0.216964 7.84409 1.44166 1.73853 0.373715
101 1 8.70862 5.21602 0.820105 -0.106259 0.0919914 -0.399574
102 1 7.51886 6.3385 8.59449 -0.167947 0.688159 0.786176
103 1 4.84611 0.527751 2.20005 -0.554191 -0.466349 -0.375553
104 1 8.7507 0.110145 1.16426 0.0302345 -0.139316 0.317803
105 1 7.52422 8.93394 8.25566 -0.151618 1.13877 -0.500407
106 1 4.01339 3.03393 7.8711 1.37089 -1.23916 -1.43988
107 1 1.32638 7.11858 1.54188 -0.898493 -0.552379 -0.335261
108 1 9.04038 5.59822 9.13598 -0.251166 -1.00253 0.574972
109 1 5.34932 1.67645 6.66981 0.062616 0.660559 0.496806
110 1 2.83033 7.88333 6.713 0.427923 -0.487363 0.269174
111 1 2.28642 0.172631 0.719553 0.0926078 0.9596 -0.814891
112 1 1.2366 5.94811 5.23753 1.11682 -0.0365252 -1.10589
113 1 9.31798 9.00989 7.45523 -0.638086 0.540819 0.716968
114 1 2.17614 6.35048 4.76042 0.240504 0.285281 0.348736
115 1 5.98103 8.53492 6.93392 0.251962 0.308156 0.0645947
116 1 2.35753 7.78523 3.0069 -2.11781 0.0978528 -1.38443
117 1 7.21935 8.19353 9.27645 0.692473 -0.844818 -1.87675
118 1 0.39467 0.287 8.09398 -0.103345 0.528264 0.0873348
119 1 7.56601 9.38202 2.94589 0.117844 0.265404 -0.331916
120 1 7.47426 6.71047 0.286302 -0.166736 -0.239527 -0.951259
121 1 5.89248 5.87668 8.64475 -0.41152 -0.0744228 0.584222
122 1 0.14941 8.80017 0.956295 0.794203 -0.284587 -0.352563
123 1 1.61858 2.43498 6.83556 0.28583 0.24342 -0.247989
124 1 3.45442 6.62435 3.30145 0.511729 0.149275 1.78387
125 1 0.692217 2.2547 4.07735 -0.139045 -0.438597 1.05881
126 1 0.257238 7.14075 6.86672 0.797059 -0.256064 -0.379854
127 1 1.76051 0.170882 4.59134 -0.947717 -0.521317 -0.0581441
128 1 4.85677 2.86096 5.4965 0.896167 0.596397 0.360278
129 1 4.82788 4.90522 1.12517 0.152865 -0.376265 0.406645
130 1 8.24788 0.802415 5.76253 -0.916933 0.227326 0.199234
131 1 9.04287 0.841895 5.03562 0.342004 -0.774427 0.274932
132 1 6.78166 3.61863 4.1539 0.0979724 1.02174 -0.810077
133 1 3.75936 3.84337 4.38096 -0.389842 0.424416 -0.239857
134 1 6.25393 2.30161 0.363614 0.103759 -0.496396 0.0887561
135 1 8.48576 1.66363 5.20783 -0.433512 -0.107802 0.172532
136 1 3.83463 5.7952 4.13286 -0.130086 -0.222134 -0.479754
137 1 2.93638 2.78387 7.84275 -0.0805056 -0.336737 -1.04319
138 1 1.5241 6.97314 5.54584 -0.557757 0.366934 1.17958
139 1 0.750505 0.253984 5.06992 -0.450623 -0.580844 1.40741
140 1 1.16609 3.8437 3.40616 1.3386 0.670392 -0.759678
141 1 2.36789 3.20171 6.44118 0.220299 0.0609476 0.935895
142 1 3.50326 3.68741 6.28399 -0.857594 -0.754736 0.867395
143 1 3.10429 6.28909 8.65084 -0.244373 -1.36893 1.78035
144 1 8.80884 8.585 1.69454 0.195473 -0.435187 0.247379
145 1 0.534885 6.50036 7.76747 0.210435 0.141789 -0.00829433
146 1 5.6501 8.89344 1.11448 0.00861555 0.958947 0.134606
147 1 1.29662 7.29252 6.58947 1.11597 0.574368 0.0230907
148 1 8.99403 4.73638 8.42582 -1.34704 -0.882455 0.508954
149 1 1.87646 6.7353 2.8234 0.643076 0.913504 0.811186
150 1 0.991924 7.4258 7.5686 0.173418 0.678287 0.837961
151 1 3.96507 8.38621 5.28414 0.117742 -1.47199 -1.32269
152 1 4.36689 9.04828 2.91785 -0.00429327 -0.497399 -0.0371232
153 1 8.98173 2.7775 2.95116 1.09279 1.37848 -1.17926
154 1 5.93017 6.76969 7.35511 -0.507214 1.33425 0.0187701
155 1 5.38637 1.12036 5.60967 -1.32451 0.00139368 1.61848
156 1 3.98591 0.572334 2.78317 0.198936 0.0252792 0.132979
157 1 8.50745 0.00572782 8.02488 1.19328 -0.505955 0.634766
158 1 0.659156 8.6003 4.95988 -1.20028 -0.357361 -0.292573
159 1 6.09412 7.72203 4.05201 0.2824 -0.705928 0.680293
160 1 9.08835 1.31822 0.926141 -0.0805293 -0.00196581 -0.0602466
161 1 2.26118 5.09244 0.732906 0.825597 0.902392 0.0937756
162 1 7.24086 4.58154 8.36224 0.700018 0.0258867 0.412846
163 1 6.536 5.3135 8.13856 0.522133 1.10205 0.147399
164 1 1.69396 5.72679 2.88254 1.43892 0.517906 -0.621251
165 1 3.41663 1.46176 8.68775 -0.110178 -0.218895 1.16196
166 1 8.19413 5.29347 3.90618 -1.34475 -0.153015 0.776753
167 1 0.456134 8.89742 0.0148767 -1.05558 0.478545 0.658888
168 1 6.97262 5.01181 0.601569 0.496558 0.803707 -0.511083
169 1 0.208146 5.50115 8.04937 -0.197962 -1.08375 0.325944
170 1 2.34234 7.18118 4.05546 -0.445146 0.566635 0.486586
171 1 0.970161 5.32374 2.17037 -0.370378 -0.379675 0.359712
172 1 6.52152 6.49709 9.30825 -0.24125 -0.254831 0.0644357
173 1 6.06835 8.80557 2.01291 -0.323016 1.18511 -0.563208
174 1 2.15547 3.3727 7.4312 0.620734 0.411684 -1.06718
175 1 4.09113 0.000464095 0.0610166 -0.703347 -0.291188 0.34095
176 1 3.29856 7.60805 3.66724 0.171211 2.02336 0.729799
177 1 1.04984 0.423739 9.11204 -0.747568 0.365242 0.832714
178 1 4.18359 6.258 5.98679 -0.906195 0.354396 0.460676
179 1 6.93179 3.93269 9.34217 -1.48588 0.141085 0.548867
180 1 4.42662 7.31233 6.86926 0.656383 0.0574478 -0.715525
181 1 7.8574 5.71962 0.428122 -0.128813 0.00250332 -1.02947
182 1 5.60299 7.85439 2.06034 -0.388742 -0.089357 -0.33884
183 1 4.67294 7.00312 8.72087 0.0637986 0.713482 1.25542
184 1 8.1713 6.70738 6.93272 0.623888 -1.3517 1.01483
185 1 8.13082 2.00794 4.2392 0.0871992 0.215308 -0.0625497
186 1 7.59304 7.30635 5.08394 -0.343122 -0.363595 0.152962
187 1 8.09899 4.46036 1.58003 0.664202 -0.0823028 -1.11127
188 1 9.25182 6.69076 8.46859 -0.677193 -0.113319 0.935673
189 1 8.07239 3.4957 4.99831 -0.829716 1.41775 0.976393
190 1 8.8264 3.79259 3.35665 0.57906 0.978702 0.351999
191 1 6.93854 2.80016 8.31459 0.0880026 1.10959 -0.652413
192 1 8.21067 5.51559 6.95883 -0.23689 0.377918 1.15619
193 1 4.04967 7.31836 5.54862 1.15154 0.911272 -0.29507
194 1 5.22364 0.95021 7.37755 0.480599 0.118981 1.33322
195 1 0.398628 8.1838 7.91383 0.466929 -0.119527 -0.321393
196 1 5.60591 6.83098 1.56569 -0.0959002 -0.00680853 0.555946
197 1 3.83329 3.2643 5.25047 1.02666 1.20342 0.661233
198 1 0.899641 4.75769 6.32062 0.0903563 -1.39683 0.906796
199 1 8.27548 5.86509 5.91836 1.72809 0.0591684 -0.289275
200 1 4.91868 8.00081 5.37774 -0.311695 -0.262711 -0.354467
201 1 0.266465 3.24592 0.668263 -0.597948 -0.665379 -0.615609
202 1 8.97888 3.66851 4.43348 -0.099107 -0.0908448 0.679296
203 1 9.27038 5.81441 6.26402 1.39131 -0.0171579 0.80988
204 1 7.24146 1.6881 4.68423 -0.52021 -0.0537343 0.149473
205 1 1.24217 8.94011 6.52004 -0.564533 -0.974861 0.0711555
206 1 4.969 9.10607 3.78645 0.531144 -0.407232 -0.784223
207 1 7.18312 4.82627 7.28742 -0.815198 0.0116697 0.083601
208 1 1.52682 3.99627 5.99588 0.357012 0.757178 -1.16734
209 1 6.51207 7.42745 1.52332 0.600789 -0.854537 0.019708
210 1 1.53002 5.23213 8.84257 0.855064 -0.247325 -0.0810606
211 1 4.00962 2.24136 5.1487 -0.965104 0.532285 0.137668
212 1 4.09555 4.08873 1.7344 -0.909461 -0.394962 0.541848
213 1 4.05409 2.62121 6.20078 -0.993071 -0.759385 -0.665796
214 1 0.767039 6.37965 0.373363 -0.524248 -0.0253467 -0.407804
215 1 7.04704 7.23348 8.79523 -0.280502 -0.588656 0.449441
216 1 3.51766 2.51787 8.72097 -0.432107 -0.864294 1.34468
217 1 5.63888 1.02077 1.84326 -0.323103 0.418245 -0.269934
218 1 0.261023 2.92242 8.406 0.855254 0.315745 0.229016
219 1 4.62059 2.26806 0.823533 0.383814 -0.400749 0.327442
220 1 8.79854 3.48966 8.34141 -0.081968 -1.31808 1.15733
221 1 6.57568 2.77663 3.52836 0.246226 -0.753472 0.0369409
222 1 5.14605 5.25781 6.7914 -0.0627903 0.660956 -0.0139898
223 1 8.59744 5.39626 1.87095 -0.441334 -0.637043 -0.0993833
224 1 5.57999 7.6695 1.08882 0.118381 -0.156222 -0.475843
225 1 2.68745 1.76309 4.00193 -0.265282 -0.274286 -1.24601
226 1 8.07751 7.50818 6.14783 -0.360491 0.960681 0.142774
227 1 3.21202 3.88943 2.52981 -0.543242 0.0607485 -1.00136
228 1 8.68202 8.33539 7.92109 -0.905045 -0.406315 0.466109
229 1 2.99489 7.392 0.570202 -1.46285 -0.187314 -1.20109
230 1 3.54909 0.570666 6.55717 -1.05028 -1.23589 -0.248248
231 1 3.5301 7.5828 7.39488 0.406024 0.0147533 -0.57537
232 1 1.63078 8.21529 7.9323 0.642807 0.186508 0.644394
233 1 7.74166 7.90373 8.40777 -0.78824 0.159525 -1.49733
234 1 5.29494 2.49699 9.36015 -0.173729 -0.173224 0.548265
235 1 0.721033 5.28932 4.45727 0.225792 -1.41592 0.58909
236 1 7.34333 5.82021 6.40165 -1.22863 -0.330695 -1.12114
237 1 7.64176 3.46113 7.01929 -0.513292 0.0526258 0.948848
238 1 4.22918 1.85251 9.38575 -1.43708 -1.27544 0.554441
239 1 8.93344 4.08796 1.10412 -0.540119 1.3364 -0.0489604
240 1 4.67116 9.05866 4.89223 0.487743 -0.0614781 -0.0645078
241 1 5.49568 5.96067 3.22655 0.548967 2.01006 -0.286168
242 1 7.95427 3.34278 2.85871 1.23046 1.50807 0.814009
243 1 1.18593 0.859498 2.05875 -0.214714 -1.1409 0.882984
244 1 8.06279 4.0326 7.87721 -1.21072 0.429707 0.482593
245 1 7.25688 4.98115 2.85587 0.350132 1.26596 0.280737
246 1 2.50409 6.9113 9.17312 0.171902 -0.461827 -0.661679
247 1 1.49539 1.95512 1.44265 -0.101355 0.496939 -0.381794
248 1 9.31422 8.90435 8.60906 -0.258234 0.911544 -0.301074
249 1 1.34771 7.02021 4.47004 0.772129 -0.0075363 -0.507044
250 1 2.14677 8.87291 2.65847 -0.982942 1.03777 1.18574
251 1 2.10774 7.28052 7.31844 0.606402 0.935348 0.893102
252 1 3.67713 3.21557 3.5597 0.377013 -0.419386 -0.310614
253 1 0.822825 6.39849 6.2101 -0.356542 -1.19573 0.24471
254 1 5.59878 1.49998 3.96766 0.295052 -0.536276 -1.17384
255 1 8.94785 8.23858 0.230709 -0.334921 -0.58568 1.17318
256 1 8.85485 7.65364 8.68644 0.646435 1.71597 0.107582
257 1 4.99917 0.67106 4.72054 0.131932 -0.0606565 -0.133762
258 1 4.41877 1.48895 2.94792 -1.29146 -0.444692 -0.401506
259 1 2.84399 5.60991 1.51571 1.17564 -0.145783 0.50783
260 1 5.14967 8.60208 7.79229 -1.17112 1.18443 0.582123
261 1 4.97291 1.53992 8.77734 0.12976 -1.55731 -0.786948
262 1 3.26494 4.3315 3.42414 -1.54848 -0.252314 -0.317172
263 1 5.3605 4.02278 5.4685 -0.486358 0.902898 -0.312949
264 1 5.97578 2.73375 2.35002 -0.867335 0.364156 0.538503
265 1 7.39742 5.82815 3.74708 0.480012 -0.832222 -1.05634
266 1 8.65095 6.29491 2.36368 -0.0750611 0.0452452 -0.829817
267 1 3.56361 8.547 0.0722783 0.381634 0.208314 -0.381374
268 1 5.86165 3.25384 6.75128 0.497776 0.160274 -0.701418
269 1 8.16057 6.17054 1.37691 0.964835 0.180305 -0.398548
270 1 7.96698 3.3851 6.06396 -1.03597 0.579088 -0.569686
271 1 3.09326 0.150189 3.21632 -1.14266 1.11112 0.926473
272 1 6.44845 4.09937 5.83681 0.940114 0.0781295 -0.515489
273 1 8.59019 6.22507 3.57404 0.281156 -0.362931 0.252082
274 1 6.54346 3.2976 0.675028 -0.390797 0.368975 0.245491
275 1 2.75086 8.23922 7.82954 -0.219641 -1.17748 0.202347
276 1 5.6198 7.28755 0.0139961 0.157174 -0.308185 1.07231
277 1 6.13049 4.51563 4.80057 -0.0447085 0.334907 -0.82332
278 1 1.15597 4.87894 1.11854 1.04703 1.19509 -0.725186
279 1 9.36424 7.27261 0.221941 -0.757975 0.72696 0.853065
280 1 5.60606 0.158001 7.83565 -0.830503 0.649744 0.740875
281 1 6.03222 6.76647 3.51565 -0.258741 0.108936 0.348163
282 1 3.12472 6.59775 4.36665 0.78944 -0.0703841 -0.535452
283 1 8.82095 6.79314 6.15986 0.119377 0.556026 0.0331247
284 1 3.70487 0.442374 8.52925 -0.59313 0.836402 0.940794
285 1 4.42976 4.53429 8.63051 1.07377 0.31345 0.771075
286 1 2.56433 0.524515 7.05102 -0.0792982 0.539965 -0.148482
287 1 8.62865 3.49371 2.04564 -0.589722 -0.776337 0.469489
288 1 4.00934 9.31447 1.91012 0.0190127 0.295469 -0.852698
289 1 6.40775 4.36237 2.30739 -0.0166646 0.2544 0.699489
290 1 2.16658 5.04947 3.52642 0.558107 1.43777 0.0895273
291 1 1.43931 0.531329 7.02485 -0.305158 0.343902 0.590993
292 1 1.86672 5.24279 4.71086 -0.0167246 0.593214 0.276001
293 1 3.3356 7.57896 4.73599 -0.0272469 0.662312 0.443267
294 1 3.65315 6.50202 7.20644 1.07428 0.267423 0.431183
295 1 3.61419 5.98545 5.13379 0.111796 0.458038 0.828741
296 1 5.50125 3.42078 4.72554 -0.382554 0.335061 -0.584309
297 1 4.11436 3.40443 8.87818 1.15365 -0.349643 -0.246705
298 1 7.99219 2.19577 0.502217 -0.223566 0.667875 0.316602
299 1 0.545073 7.96932 1.453 -0.3637 0.960696 -0.338098
300 1 6.24819 1.46021 1.10286 -0.441316 -0.0580091 -0.43869
301 1 0.721236 2.14226 7.8519 -0.0580541 0.615661 0.660469
302 1 6.5369 8.31478 6.09975 -1.06691 0.415242 0.879148
303 1 4.45058 4.49118 6.86316 0.754439 0.0838126 -0.628843
304 1 6.48985 1.23875 0.17804 0.423162 -0.291598 0.967428
305 1 1.53416 4.45993 0.262277 0.500832 -0.551763 -0.0788347
306 1 8.70703 0.207359 6.85584 -0.0293132 -1.09154 -0.0550139
307 1 4.6569 6.33266 1.72751 0.319391 -0.746543 0.470311
308 1 6.09539 8.80571 3.85025 0.70454 1.63556 1.63327
309 1 3.5077 5.01287 4.82329 0.746 0.113634 0.665387
310 1 9.13971 2.36247 3.91573 0.323557 1.01527 -0.150303
311 1 5.70978 2.24085 8.35708 0.796061 -0.930967 -0.479896
312 1 4.11282 6.97607 2.41206 -0.821658 -0.552548 -1.7981
313 1 9.04794 7.7586 1.14592 0.317239 -0.220154 0.0381258
314 1 5.71256 4.77178 8.09661 -1.25117 -0.399252 0.851466
315 1 5.95237 5.80318 6.57571 -0.780692 0.747822 -0.122577
316 1 1.15601 8.48974 3.13741 -0.894496 -1.14991 -0.545276
317 1 3.75506 2.76943 0.514792 -0.0969153 0.607162 0.131787
318 1 0.280916 2.56046 5.39318 -0.577076 0.107027 -0.00438677
319 1 7.50984 8.37253 6.52814 0.789026 1.26925 -1.5019
320 1 8.17022 2.50926 2.2052 -1.80369 -1.32197 -0.505948
321 1 4.56472 8.84647 5.95871 1.07746 0.991852 0.639816
322 1 0.402165 0.491152 7.02764 -0.362386 0.588291 0.512193
323 1 3.31319 5.4348 3.31409 0.252772 -1.11642 0.304085
324 1 5.4137 1.59558 0.42427 -0.699045 -0.201853 -0.313627
325 1 4.99945 1.87056 4.8541 0.158406 0.0417819 1.0347
326 1 7.76611 9.34384 7.20537 -0.665213 -1.73422 0.213764
327 1 0.810516 6.96816 8.83784 -0.867197 0.294946 0.746128
328 1 4.56787 5.33344 2.07561 -0.543423 -0.197567 -0.234535
329 1 1.92779 3.5993 4.4375 0.518519 0.637977 1.2965
330 1 3.33381 2.60232 4.4347 -0.589347 0.866384 -0.635362
331 1 4.52265 3.67553 5.96685 -0.998811 0.408022 0.65662
332 1 1.54787 4.17121 7.05418 -0.379972 -1.06803 1.70937
333 1 6.37254 6.48582 0.923241 -0.665484 -1.81496 -0.480706
334 1 3.52816 0.168717 7.46231 -0.608451 0.255861 0.947895
335 1 3.78155 1.55107 0.935339 0.207284 -0.874542 0.542319
336 1 0.817908 0.465098 6.12406 -0.348772 -0.513375 -1.03611
337 1 8.6193 3.57869 0.191017 0.0754209 -0.0476186 0.475296
338 1 5.98976 2.04122 3.13858 -0.720496 -0.170027 1.16038
339 1 8.35981 8.58023 8.84717 0.0950814 0.952605 1.01198
340 1 2.76098 4.83904 2.57349 0.26669 0.457825 1.10493
341 1 1.46285 1.1199 0.217219 1.14833 0.14195 1.34753
342 1 3.80111 7.97073 8.52669 0.99191 0.811188 0.423256
343 1 2.13672 3.20096 2.75937 -0.0865577 0.402312 1.33799
344 1 3.13155 0.86315 4.53273 1.28842 -0.54566 -0.476533
345 1 7.01135 8.37079 4.33909 0.134149 0.559774 -0.412071
346 1 0.544318 5.73948 7.01394 1.07383 0.658975 0.656525
347 1 9.03157 4.20346 7.61225 -0.816932 0.0564389 0.145709
348 1 5.05718 3.02231 7.59218 -0.816923 0.185766 -0.180349
349 1 3.98924 0.984526 1.8237 -0.603739 0.0163205 -0.5096
350 1 4.96251 3.6091 3.93191 -0.548826 -0.3788 0.583007
351 1 7.11411 9.07534 1.99493 -0.0783247 0.233964 -1.10009
352 1 5.15089 5.19322 8.98085 -0.320401 -0.336234 -0.306497
353 1 1.33149 1.20201 4.68635 -0.406127 -0.55636 -0.300261
354 1 2.7287 0.520012 8.05914 -1.06372 -0.237384 0.36412
355 1 8.83945 3.80452 6.59472 -0.939296 0.719996 0.372288
356 1 0.502499 4.22632 0.529595 -0.684864 1.37713 -0.571403
357 1 5.434 2.91051 1.03857 0.216016 -0.0845837 0.626129
358 1 0.989922 8.83467 8.5378 -0.0656945 0.100368 1.2918
359 1 3.206 3.52385 1.4332 -0.201576 -0.240513 -0.569614
360 1 6.10402 3.13307 5.5812 -0.144943 -1.00891 -0.881056
361 1 3.52555 1.79831 2.39951 0.194521 -0.435273 0.626233
362 1 6.58429 3.23808 1.74212 0.541636 0.702764 -0.256225
363 1 8.27589 7.40317 1.93273 0.381147 -0.258424 0.147179
364 1 4.34912 1.16333 8.01602 -0.0879134 -1.0141 0.0313551
365 1 1.10098 8.90582 1.5245 0.708959 -0.184552 -0.491561
366 1 6.76788 7.93549 5.18503 0.719056 -0.699878 0.292964
367 1 7.96096 0.946611 4.81334 -0.581256 1.49304 0.432976
368 1 2.33769 7.30095 1.44432 -0.0535515 -0.0274514 1.22959
369 1 7.7956 2.5011 5.23328 -0.567009 0.299802 -0.462701
370 1 4.89405 1.25167 1.21554 -0.0637857 0.116687 -0.988551
371 1 8.26448 0.820089 2.62198 -0.837384 1.4191 0.771911
372 1 5.1024 9.33135 0.278892 -0.179591 0.778518 -1.48961
373 1 7.92516 0.927204 6.83029 2.01825 -0.401079 0.514669
374 1 6.9668 6.81817 3.84781 -0.528341 -0.881037 1.39104
375 1 5.12125 5.81126 5.78629 0.729214 -0.849461 0.780636
376 1 2.48984 1.67051 7.80965 -0.924953 -0.506324 -0.770866
377 1 2.80253 5.34854 8.19814 -0.448127 0.326126 -0.549323
378 1 8.15895 9.30267 2.0184 -1.26603 -0.230624 0.436285
379 1 8.90165 3.62895 5.49585 0.71858 0.484171 -1.09456
380 1 8.69758 7.17639 2.86215 -0.374376 0.761088 -0.404613
381 1 1.56624 5.36046 7.01592 1.02226 -0.121984 0.836489
382 1 6.58051 2.04104 1.96336 -0.044794 0.41681 -1.78498
383 1 7.02834 2.42995 1.11114 0.707762 1.16373 -0.731741
384 1 7.12223 8.42798 1.25493 -0.719457 0.989837 0.48706
385 1 5.01287 8.90663 2.0136 0.634578 -0.43184 -0.976727
386 1 0.489074 2.19943 1.0842 0.8433 0.0349843 -0.773324
387 1 7.55238 1.70012 2.57446 -0.760526 0.426863 -0.104559
388 1 4.81476 6.01702 8.42717 0.97667 0.234032 1.19872
389 1 7.39502 4.24178 6.24625 0.152143 0.586169 0.427627
390 1 8.38979 4.46933 4.83377 -0.932987 0.830379 -0.666717
391 1 4.68008 0.898879 0.213327 -0.188174 0.448162 -0.357265
392 1 2.24716 0.776621 3.8414 -0.227636 -0.192066 0.474357
393 1 4.48544 0.220084 7.73158 -0.580093 0.593827 -0.462451
394 1 9.28582 4.6347 6.15098 -0.557964 -0.269423 -0.620715
395 1 7.94032 5.32312 8.82908 1.6898 -0.0010453 0.840121
396 1 2.87272 1.79811 5.07821 0.700814 0.492236 -0.757758
397 1 7.10454 3.22557 5.23471 -1.08969 -0.722424 -0.425023
398 1 7.43618 6.92395 1.26275 1.41196 -1.04178 0.129719
399 1 2.10592 1.44446 2.26 0.128237 -1.7283 0.229602
400 1 6.80824 8.01852 2.31773 0.421123 0.0821807 0.757597
401 1 3.40212 1.67198 5.91969 -1.03964 0.31439 0.473096
402 1 7.36092 0.252109 5.40266 0.00512009 1.2482 -1.42141
403 1 0.839474 3.03243 1.57835 0.401367 -0.602882 -0.554739
404 1 5.11816 6.91477 2.56792 -1.91608 -0.47406 -0.934367
405 1 4.1362 1.69667 6.8989 -0.243041 0.167945 -0.425453
406 1 2.22769 4.23948 5.27985 0.27615 -0.655196 -0.557263
407 1 5.40273 8.34169 0.176994 0.108911 -0.521239 0.658826
408 1 4.68463 2.57313 8.46829 -0.856858 1.30758 -0.683643
409 1 2.84538 1.28785 2.96633 0.325553 0.842148 -1.08546
410 1 0.585622 3.86113 6.92577 0.72537 0.236715 -0.365276
411 1 6.64962 8.98587 5.31464 -1.34843 -0.177789 -0.971424
412 1 5.73054 0.390614 3.65941 1.12329 -0.817486 -1.01189
413 1 1.98412 7.70058 0.519675 0.176594 -0.454799 -0.0476838
414 1 1.36799 7.4258 3.40296 -0.064946 0.759436 -0.101787
415 1 1.43242 3.80499 1.15938 -0.985573 0.0460555 0.860283
416 1 9.39648 8.73877 3.45632 0.879134 -0.116532 0.544353
417 1 1.40426 7.89513 4.99095 -0.459417 -0.935272 0.609045
418 1 3.24983 0.448214 1.02285 1.26749 -0.0413219 -0.168303
419 1 7.65477 2.51483 3.29236 0.130388 0.195774 0.558749
420 1 0.0152494 1.85658 4.72293 -0.875854 -0.15089 -0.50055
421 1 7.83175 8.37418 2.07101 -0.57292 -0.257619 0.480921
422 1 3.07394 2.67969 5.56469 0.387419 -0.320878 0.0329057
423 1 8.0586 7.68442 0.104473 -1.17157 -0.46681 -0.792591
424 1 7.51459 8.49604 5.5076 -0.838569 -0.540219 -0.707956
425 1 1.63936 2.02313 5.31572 -0.48714 -0.23898 0.943116
426 1 9.02433 0.867931 8.67796 0.924534 0.0131553 0.0757901
427 1 6.57561 5.75928 5.53738 -0.0426037 0.364502 0.494805
428 1 3.3043 2.80339 6.863 0.495955 0.179618 -0.50627
429 1 4.65118 3.25179 0.403197 0.389422 0.330382 -0.342295
430 1 2.41485 8.74006 6.11523 -0.0251693 -0.254126 -0.863239
431 1 9.058 7.35001 7.67722 -0.557519 0.651421 -0.248043
432 1 6.26357 0.831286 7.06462 -0.254067 -0.851482 0.36157
433 1 3.67006 2.05976 7.73203 0.569372 -0.368198 -0.305587
434 1 4.83648 4.28377 2.43765 -0.587019 -0.337596 0.985494
435 1 2.03893 0.557926 2.74304 0.573844 -0.405081 -0.777476
436 1 2.16023 3.44985 9.10764 -1.39605 -0.984517 -0.830842
437 1 8.15655 5.04253 7.84985 -0.0911194 1.35563 0.257159
438 1 1.68008 9.06567 9.39213 0.958919 0.610605 1.30362
439 1 5.20066 6.28202 4.17051 -0.238729 -0.889826 -1.07431
440 1 0.523035 4.5499 2.69918 0.0418472 0.237881 -0.0430997
441 1 9.25146 0.882039 2.22515 0.506933 -0.312523 1.65302
442 1 4.80368 6.85635 0.726929 -0.322387 1.11593 -0.512574
443 1 3.83814 6.85799 8.17366 0.203059 0.367277 -0.789616
444 1 7.94562 6.55944 4.28741 -0.133868 -0.430458 -1.46319
445 1 4.91715 0.394349 8.65127 -1.27956 0.602489 -0.309518
446 1 7.54886 5.89502 2.17548 -0.202012 -0.274467 0.915191
447 1 1.02176 7.39794 0.454288 0.587014 0.72739 0.15254
448 1 4.51033 7.74733 7.89118 0.597279 -0.450825 0.733929
449 1 2.38066 1.44719 8.80056 -0.281085 0.441093 -0.380718
450 1 2.01095 9.11351 7.40544 0.521136 0.739824 0.326367
451 1 6.85229 0.708128 8.7597 0.514473 0.770342 -0.816624
452 1 5.6057 6.75924 8.31921 0.434042 0.110357 0.328592
453 1 5.33419 7.86082 8.58726 0.606105 0.770697 -0.954679
454 1 5.5785 6.47109 5.10559 1.15004 1.16356 -0.273735
455 1 4.17327 5.60858 6.74331 -0.199685 -0.700821 1.21875
456 1 0.866778 6.31792 2.25886 0.699039 -0.51775 -1.65828
457 1 4.82977 4.28602 0.0999011 -0.854438 -0.0371528 0.0279499
458 1 8.50021 7.45324 4.53333 0.629632 0.171874 -1.04382
459 1 2.83501 6.96638 2.45566 -0.332936 0.130883 0.211324
460 1 8.44731 2.72261 8.93799 0.179961 0.214535 -0.204679
461 1 8.88182 4.93546 3.25336 0.0532399 0.42641 -0.876657
462 1 0.978775 6.52899 3.3788 -0.781444 0.543227 0.55434
463 1 2.18152 0.476755 8.93164 0.524054 0.238216 0.692937
464 1 9.15952 6.21409 0.588139 -1.06759 -0.768318 0.983943
465 1 1.57664 8.18763 2.15107 0.230148 0.689863 -0.452313
466 1 8.07866 7.97625 1.09782 -0.212227 -0.93024 -0.517207
467 1 5.36318 1.15929 2.94625 -0.754163 0.645901 0.0730561
468 1 6.63848 8.9147 2.91496 0.962297 0.493452 -1.04391
469 1 2.45724 2.02474 1.12323 0.389689 -1.84416 1.10751
470 1 6.99342 5.5039 4.61367 -0.811158 0.246376 -0.349288
471 1 2.5614 8.53539 0.233587 -0.0063235 -1.555 1.21208
472 1 2.35298 7.00996 6.34512 -1.24234 0.236249 0.00189865
473 1 9.0229 1.22454 6.85294 0.514482 -1.37997 0.177858
474 1 6.68261 1.78035 8.46394 -0.325659 -0.323963 0.242138
475 1 4.46319 8.7145 8.66769 -0.782259 0.966367 0.509566
476 1 2.7581 5.57767 4.38415 0.485583 0.862804 -0.559755
477 1 8.27039 6.95452 8.17703 -0.180022 -0.879771 -1.34734
478 1 5.83092 9.34738 4.66137 0.866326 0.104643 0.0516554
479 1 7.42993 0.667446 2.06725 -0.540722 -0.0372171 0.920873
480 1 6.06617 6.79024 6.39936 0.0153027 0.370487 1.19785
481 1 2.65972 4.43976 4.25479 -0.297958 0.277825 0.287189
482 1 4.55865 6.4291 5.07349 -0.228342 -1.52068 -0.784132
483 1 0.963106 5.16271 3.42291 0.326609 -0.418999 -0.675223
484 1 0.204875 3.74569 9.07231 0.0449765 -0.303451 1.08608
485 1 6.75395 5.81341 7.19489 -0.119874 -0.85363 -0.429864
486 1 1.59746 4.56902 2.81257 0.484729 0.794425 -0.682228
487 1 0.589071 6.29533 4.45309 0.52629 -1.45297 -0.204885
488 1 6.71472 2.21212 5.57356 -0.914179 0.315594 0.124489
489 1 6.40019 8.40707 0.576119 -1.79102 0.819554 -0.231967
490 1 5.50212 5.82831 2.10842 -1.08691 -2.02483 -1.16185
491 1 4.73627 5.20297 3.10985 -1.07304 0.108279 0.183663
492 1 1.52863 8.99578 5.43224 -0.850858 -0.877391 0.265225
493 1 7.97968 4.56447 0.481848 1.16688 -0.162262 -0.958368
494 1 4.24231 4.11703 3.29969 -0.691824 0.798011 0.965485
495 1 3.0966 8.22845 1.13972 0.590651 0.678841 0.178924
496 1 2.55545 9.35414 5.32304 2.24303 0.461102 -0.994716
497 1 6.45855 7.62081 6.94286 -0.397656 0.519217 -0.11878
498 1 2.63006 1.08276 0.365011 -1.2484 0.35217 -0.547113
499 1 3.60876 2.92422 2.30823 -0.0803251 -0.851869 -0.0245233
500 1 6.62937 6.42722 8.11581 0.862028 0.610093 0.417466
501 1 5.8867 4.1652 3.85859 -1.6652 0.21459 0.0233219
502 1 7.79787 4.10351 4.08993 1.40686 0.22374 0.266183
503 1 3.35018 1.12616 7.50263 -1.15981 -0.381756 -0.517052
504 1 3.02751 0.432572 2.22643 0.756242 -0.86403 0.449362
505 1 7.70502 3.29296 0.430154 0.043338 1.02725 -0.133413
506 1 5.52054 5.78084 7.71255 0.832982 0.124222 -1.86896
507 1 5.51291 7.77083 7.46477 -0.130455 -1.04476 0.350017
508 1 0.816768 8.12139 4.03313 -0.386411 -1.03135 0.386108
509 1 3.4166 2.40235 1.46911 0.25892 -1.11684 0.0153363
510 1 5.67398 4.78699 0.479759 -1.03714 1.09177 0.179453
511 1 6.2472 1.75444 7.50701 0.113322 -0.579669 0.921708
512 1 1.91708 6.28107 1.86348 0.0895196 -0.510345 0.373601
513 1 4.58166 7.38851 1.63112 0.28278 -0.499815 -0.123976
514 1 8.07272 5.56942 2.95393 -0.0481127 -1.04765 0.197712