ITEM: TIMESTEP
320
ITEM: NUMBER OF ATOMS
1000
ITEM: BOX BOUNDS pp pp pp
0.0000000000000000e+00 9.4000000000000004e+00
0.0000000000000000e+00 9.4000000000000004e+00
0.0000000000000000e+00 9.4000000000000004e+00
ITEM: ATOMS id type x y z vx vy vz
1 1 4.81301 0.301818 1.15105 1.23815 -0.198073 -0.418506
2 1 7.854 3.00578 7.84095 -1.54021 -0.174165 -0.22576
3 1 0.376294 3.14925 3.6771 -1.55044 -1.07434 -0.294152
4 1 0.654839 8.00207 6.88959 0.661213 -1.33867 -0.107512
5 1 5.509 2.21263 5.77143 0.585679 0.0625803 -0.436167
6 1 7.0117 7.2584 5.96469 0.313413 -0.414761 -0.12532
7 1 1.1687 8.42942 0.776819 -0.258034 -0.560486 -0.136902
8 1 2.18633 2.30841 6.20227 -1.76591 -0.415479 -0.179133
9 1 1.29349 2.78166 4.86345 -0.213185 0.314164 0.0713276
10 1 2.96037 9.12308 1.61492 0.100247 -0.21436 0.232793
11 1 8.55219 6.98093 0.692269 -0.362991 0.687635 0.0379182
12 1 7.01007 2.86904 2.68327 0.0920457 0.788798 -0.210356
13 1 8.163 1.67783 6.26251 -0.492092 -0.193426 1.01634
14 1 3.57524 6.27309 1.5647 0.926525 0.329305 0.476233
15 1 7.66154 3.01349 1.50968 -0.391632 0.591947 0.0511354
16 1 1.32558 3.14569 8.47257 0.136724 0.304928 0.515224
17 1 8.18181 4.42978 6.78689 0.989978 -0.221821 -0.504845
18 1 0.272805 3.45983 2.64038 -0.566249 -0.0855855 0.294112
19 1 6.22248 2.93348 9.03358 1.4032 -1.44191 -0.00153653
20 1 4.29067 3.4334 6.97862 -0.527419 0.444686 -0.573019
21 1 1.72006 5.11405 5.76496 0.265224 0.415014 0.114964
22 1 2.99883 3.44621 4.83136 0.7253 0.316465 -0.80769
23 1 5.16842 3.6831 8.65363 -0.199234 -0.128078 -0.398988
24 1 2.19187 3.92164 8.12207 0.940574 -0.749273 0.157289
25 1 6.29134 2.91292 7.60291 -0.221611 0.224304 -0.966208
26 1 2.19684 3.06595 5.5025 -0.689129 0.614237 0.825445
27 1 8.36614 0.899443 7.7596 0.485959 0.519868 0.00439922
28 1 4.44219 6.36895 3.35536 0.138784 0.126932 -1.76534
29 1 3.07984 0.145434 9.3219 0.210635 -1.53647 0.0113414
30 1 7.32283 2.72564 4.36313 0.146031 -0.172127 -0.595801
31 1 8.72466 2.93419 1.22372 -0.509231 0.896319 -0.107675
32 1 4.40789 0.541242 5.71162 0.403534 -0.11903 -0.152863
33 1 1.87581 7.32399 8.45993 -0.864791 -1.10201 0.511468
34 1 3.6618 7.39132 1.47406 0.378902 0.758641 1.12147
35 1 9.24285 0.528597 6.04685 -1.20962 0.445739 -1.65489
36 1 6.56115 6.42068 1.93112 -0.12458 0.837581 -0.151015
37 1 8.5716 1.52325 9.34357 -0.834451 -0.326505 0.58541
38 1 1.28909 1.46329 2.95432 0.483633 0.304588 -0.527472
39 1 0.393483 0.932803 4.32626 0.246092 1.27794 -0.921335
40 1 2.41437 4.10396 0.55816 0.265092 0.751137 -0.794941
41 1 6.10982 9.37605 6.23545 -0.0174953 0.48045 0.240089
42 1 1.25613 1.98007 8.93264 -0.395651 1.40254 0.785065
43 1 1.86407 2.98721 1.77157 -0.773949 -0.0663997 0.519272
44 1 7.2617 1.28904 5.68508 -0.0530346 0.666256 0.500937
45 1 6.27931 2.30045 6.63496 0.297337 2.00536 -0.15111
46 1 7.68716 6.52985 3.25295 -0.388444 -0.801858 -0.0118533
47 1 6.04582 5.69004 0.318053 -0.346025 0.274147 -0.99127
48 1 7.8242 7.44787 3.80417 -0.10674 0.72567 -0.0499747
49 1 3.49215 4.57401 6.71541 -0.0193332 0.273638 -0.3966
50 1 8.63777 8.08743 3.55286 0.395702 -0.897489 0.499849
51 1 6.32353 7.22618 2.59697 0.167278 -0.870047 0.24861
52 1 1.0104 3.58581 0.0969023 0.219825 1.14423 -0.0289765
53 1 5.33116 3.10872 3.26818 -1.2693 0.397197 0.344193
54 1 0.185928 6.11037 5.25177 -0.538423 0.0129316 0.180624
55 1 8.97745 5.2149 5.35695 -0.0582308 0.56675 1.76166
56 1 0.161964 4.4722 5.01186 -0.309821 1.00445 0.741431
57 1 0.0381419 8.89078 6.36292 -0.380142 0.66008 0.111022
58 1 5.18047 4.00933 1.20032 0.492943 -0.289465 0.849919
59 1 0.425603 7.52426 4.73987 -0.808318 -0.995964 -1.77025
60 1 0.433323 5.35396 0.38807 -1.51192 1.00273 -0.81181
61 1 5.59668 9.03505 8.64449 0.0253726 -0.0538504 -0.233706
62 1 0.324621 0.283172 1.58321 0.208438 0.194094 -0.467518
63 1 7.34646 6.90742 7.57472 0.526139 0.170787 -0.0657634
64 1 3.38203 5.24041 8.98209 -0.983534 0.00364298 0.0140695
65 1 2.18932 2.42979 8.86906 1.21177 -0.361466 -0.712811
66 1 6.42318 4.94063 9.18644 -0.952677 0.541978 -1.93827
67 1 6.45481 5.51499 2.3054 -0.507595 -1.32091 0.157264
68 1 4.22874 5.16105 0.285458 1.05567 -0.635209 -0.102734
69 1 2.48975 2.93543 0.65598 -0.288624 -0.885263 -1.10656
70 1 0.149823 1.54328 3.5164 0.526737 0.817051 -0.605124
71 1 7.30561 5.90891 1.2875 -0.756658 0.450586 1.28962
72 1 7.28015 4.93007 1.66216 -0.34001 0.241726 0.483704
73 1 2.13437 8.55873 1.19897 0.253213 0.273946 -1.0706
74 1 4.68793 5.16426 7.74568 0.610238 -0.556521 0.416691
75 1 8.26223 9.25728 5.02111 0.860986 -0.0481833 -0.531232
76 1 6.66846 7.90741 3.33092 0.426395 0.294986 0.0825111
77 1 4.83157 4.13581 7.73628 0.215275 0.308141 0.302761
78 1 2.38918 4.90765 9.04369 0.0187928 0.899988 0.774226
79 1 7.76824 7.79042 2.75635 0.500901 0.945345 -0.813382
80 1 0.0909494 6.63406 2.80553 -0.466014 0.133914 -0.083042
81 1 5.79407 0.369436 2.70149 0.626167 0.0626996 0.213953
82 1 9.18279 3.14773 7.48666 0.336356 -0.384756 -0.0265664
83 1 3.47288 8.60846 4.52116 0.245207 0.186323 -0.332204
84 1 0.758396 4.8042 7.29739 0.0217853 1.30604 -0.606427
85 1 2.1516 2.14961 3.16161 0.432234 -0.119437 0.528129
86 1 3.31298 4.3125 8.56665 1.17972 -1.10264 -0.0295581
87 1 9.08562 4.33975 2.30576 0.74597 -0.316141 0.0419553
88 1 0.673816 1.86774 2.13342 -0.0839595 1.3422 1.23616
89 1 4.41163 2.16432 1.77328 -1.24448 0.705206 -0.397837
90 1 7.27009 7.04633 2.2389 -0.56802 0.642086 -0.173775
91 1 4.3374 2.63638 3.41385 -0.499216 -0.729 -0.872322
92 1 0.581053 1.31555 8.52262 -0.199879 0.827597 0.876669
93 1 3.89436 6.1324 2.49768 0.0146869 -0.248288 0.437641
94 1 4.95728 8.49556 0.999108 0.161459 1.67285 0.571415
95 1 6.30569 6.02039 4.10088 -0.878889 0.216171 -0.823506
96 1 3.88972 8.50416 7.49617 0.161652 0.813124 -0.00724727
97 1 5.69249 4.60456 2.81166 -1.02168 -0.948642 0.0820379
98 1 8.46218 8.90784 2.97118 -0.531721 0.706153 0.843145
99 1 1.03582 0.0319441 2.81767 -0.546323 0.176355 0.936989
100 1 6.77983 0.0811092 7.87992 -0.798214 0.199206 -0.488719
101 1 8.82558 5.30248 0.805648 -0.539312 0.332434 0.536381
102 1 7.73534 6.44855 8.5858 -0.147934 -0.316454 0.161937
103 1 4.82759 0.533085 2.14665 -0.93852 -0.074811 -0.727336
104 1 8.78945 0.0618148 1.17566 0.0231955 -0.477264 -0.174202
105 1 7.4546 8.65659 8.1836 0.330281 0.0896162 -0.6479
106 1 3.77572 3.2324 7.91527 0.275598 -0.908294 0.159105
107 1 1.48733 7.16482 1.64966 0.808004 0.849075 0.295893
108 1 9.12911 5.40399 8.96039 0.0280748 -0.665947 -0.190117
109 1 5.31371 1.78902 6.73513 -0.22011 0.774151 0.207195
110 1 2.74212 7.97695 6.81231 -0.0948619 0.537715 -0.521296
111 1 2.2207 0.246422 0.667565 1.4806 -0.467276 -0.0361161
112 1 1.45547 5.9196 5.14472 0.395099 -0.980711 0.217192
113 1 9.27424 9.02128 7.53834 0.203715 -0.239541 -0.616741
114 1 2.22994 6.41296 4.57209 -0.444003 -0.350727 0.461245
115 1 5.85639 8.63846 6.98059 1.34351 1.14785 -0.0746958
116 1 2.30377 7.92347 2.99512 0.415819 0.604635 1.37251
117 1 7.35963 8.17679 9.17227 -0.149119 0.225189 -0.122896
118 1 0.472066 0.229964 8.0759 -0.338646 -0.964493 -0.22348
119 1 7.59595 0.0662239 2.98534 -1.52684 -0.504277 -1.25148
120 1 7.39184 6.58598 0.197827 -0.142012 1.30478 0.553189
121 1 5.78069 5.72577 8.65868 0.126935 -0.505277 -0.336393
122 1 0.169644 8.73903 1.03017 0.146205 -0.93596 -0.5446
123 1 1.30695 2.44515 6.91739 -0.0857904 0.119954 0.71336
124 1 3.47196 6.75912 3.33888 0.986466 0.0765156 0.863981
125 1 0.638561 2.22002 4.23535 1.78127 0.198586 -0.452268
126 1 0.336635 6.85664 6.80341 -0.0466374 0.469591 0.785292
127 1 1.82265 0.285049 4.68384 0.334148 -0.0582916 0.0621527
128 1 4.84324 3.00799 5.39676 -0.640851 0.451374 -0.699272
129 1 4.88412 5.00962 1.12005 1.78381 -1.01278 -1.48626
130 1 8.15082 0.692897 5.85876 -0.348959 0.299618 -0.986215
131 1 9.01547 0.75249 5.1025 -1.05177 0.160668 -0.328334
132 1 6.72023 3.67884 4.16245 0.668406 1.85082 0.158998
133 1 3.75877 4.06283 4.32244 0.588211 0.900708 0.0713888
134 1 6.13094 2.39104 0.540843 -0.0517988 -0.171113 -0.562567
135 1 8.41281 1.57636 5.16479 0.0205336 -0.194174 -0.184831
136 1 4.01873 6.07899 4.20708 0.71362 1.05143 -0.603561
137 1 2.7164 2.66277 7.69087 -0.138936 -0.074022 0.500738
138 1 1.58414 7.12731 5.47491 0.75324 1.28329 -0.152925
139 1 0.753705 0.28504 4.98072 0.317701 -0.986402 -0.510185
140 1 1.21554 3.74679 3.40546 -0.237645 -0.704059 1.05999
141 1 2.57385 3.25267 6.49869 0.640152 0.494348 -0.602833
142 1 3.53915 3.66639 6.19743 0.559813 0.533206 -0.732218
143 1 3.12559 6.15411 8.59665 0.781135 -0.110101 -0.553999
144 1 8.94811 8.58003 1.97918 0.19952 1.02324 -0.416066
145 1 0.522607 6.53528 7.85096 0.85335 -0.531681 0.800219
146 1 5.85521 8.95074 1.07334 0.90604 0.00664493 1.35603
147 1 1.25292 7.1978 6.44544 -0.0409486 -0.664493 0.281414
148 1 9.0628 4.51512 8.42723 0.472893 -0.40861 0.0176567
149 1 1.84795 6.84787 2.76818 -0.0831893 -0.232899 -0.0805118
150 1 1.08185 7.33274 7.60618 1.06232 -0.861824 0.139906
151 1 3.90959 8.36413 5.45567 -0.340938 -0.342139 0.109167
152 1 4.33165 9.12422 2.8208 0.80928 -0.204216 0.398198
153 1 8.93175 2.72194 3.06366 0.288971 0.283825 0.340048
154 1 6.00389 6.76546 7.30179 -1.39241 0.676576 1.02734
155 1 5.29069 1.15282 5.42941 0.946972 0.508051 -0.712962
156 1 3.83703 0.634454 2.85681 -0.156266 -0.468268 -0.954115
157 1 8.36671 9.37083 8.28941 0.734671 -0.340351 0.21986
158 1 0.583996 8.61925 4.87497 -0.125351 -0.00198009 -1.87222
159 1 6.20263 7.67426 4.24996 -0.360762 0.0517356 -0.873329
160 1 9.05663 1.23226 0.851556 0.32989 0.440784 0.0398784
161 1 2.34464 5.06487 0.72261 -0.902917 1.15012 -0.622445
162 1 7.29276 4.57462 8.51424 -0.164214 0.00813832 -0.391462
163 1 6.57652 5.31744 8.15891 -1.11411 -0.0940278 0.606265
164 1 1.85578 5.6444 2.90218 -0.0839181 1.16996 -0.46765
165 1 3.42045 1.57075 8.69191 0.287103 -0.520735 -0.259885
166 1 8.28096 5.02062 3.86384 -0.650459 -0.267882 -0.515436
167 1 0.588743 8.83808 0.0277123 -0.247206 -0.359922 0.336155
168 1 6.9115 4.79937 0.740572 0.874368 -0.783843 -1.16296
169 1 0.226284 5.44678 7.94513 -0.806448 -0.207156 -1.29096
170 1 2.47754 7.3085 3.89562 -0.0541057 -0.89588 -0.563038
171 1 1.00841 5.28865 2.23629 0.537294 -0.88003 -0.0283752
172 1 6.26411 6.56952 9.23158 1.30083 -1.17419 -0.48723
173 1 6.11114 8.97202 2.11292 -0.702511 -0.899994 0.809272
174 1 1.9341 3.25395 7.44871 0.786326 -0.0602635 0.507181
175 1 4.08329 0.148639 0.312118 -0.770366 0.725939 -0.0409479
176 1 3.45048 7.65532 3.82047 -1.06793 0.0720433 1.10386
177 1 0.902505 0.428945 9.00643 0.0964105 0.146874 -0.21771
178 1 4.1225 6.21703 6.02728 0.933481 0.484943 0.141074
179 1 7.19495 4.08894 0.039713 -1.03953 -0.273502 -0.115757
180 1 4.42135 7.18212 6.70896 0.0236706 -0.943037 1.17666
181 1 7.76217 5.57676 0.498563 0.342862 -1.15275 0.16339
182 1 5.71159 7.92985 2.0673 -0.383541 -0.77541 -0.333319
183 1 4.64531 7.03991 8.61765 -1.31574 -0.259212 1.16053
184 1 8.08152 6.55691 6.73932 0.292933 -0.901741 0.288466
185 1 7.99371 1.92976 4.26956 1.63151 -0.225721 -1.31907
186 1 7.57507 7.38623 5.09291 -0.878575 -0.983568 -0.141137
187 1 8.20035 4.54444 1.71836 1.01117 0.790278 0.898951
188 1 9.33423 6.72386 8.72845 1.0428 0.191791 -0.208536
189 1 8.07341 3.44514 4.90777 -0.149093 -0.462119 -0.679083
190 1 8.87529 3.67036 3.22592 -0.0379289 -0.514613 -0.0107251
191 1 6.97216 2.65875 8.31845 1.36717 1.33704 0.232488
192 1 8.21944 5.52939 6.85246 -0.180964 0.375536 0.115783
193 1 4.11157 7.16731 5.47385 -0.0166641 -0.22151 0.925206
194 1 5.21815 1.12419 7.66789 -1.16805 0.439956 0.111359
195 1 0.410677 8.10087 7.92701 -0.619274 0.0824381 -0.2662
196 1 5.72164 6.90403 1.57604 0.497221 -0.537454 1.59086
197 1 3.89963 3.35108 5.29219 -1.34738 -0.443347 0.998587
198 1 1.03881 4.57809 6.31298 0.413081 -0.710741 -1.32637
199 1 8.30159 5.80873 5.87954 -0.166356 -0.440774 -0.125567
200 1 4.86578 7.91749 5.2466 1.11739 0.880017 -0.323009
201 1 0.292073 3.39068 0.800094 -1.63956 0.170999 -0.0999439
202 1 9.01828 3.5713 4.39949 -0.12868 0.904364 -0.305906
203 1 9.38622 5.64679 6.14613 0.0303737 -0.146053 0.643483
204 1 6.94316 1.70581 4.62197 0.860217 -0.803986 0.300819
205 1 1.18471 8.84699 6.5084 0.857978 -1.37567 -0.589272
206 1 4.7385 9.08071 3.78175 -1.6661 -0.122866 -0.543305
207 1 7.31879 4.85789 7.33062 -0.523729 -0.439924 -0.739893
208 1 1.72774 3.81109 6.11525 -0.53377 1.0034 -0.0825878
209 1 6.58003 7.44103 1.47574 0.999196 1.00032 1.08005
210 1 1.42738 5.20569 8.87677 -0.217057 -0.632699 -0.800185
211 1 3.87479 2.31487 5.18758 -0.903178 0.0166047 0.52226
212 1 3.83083 4.01775 1.91695 0.00208 -0.189929 1.20204
213 1 4.10907 2.69462 6.20852 0.664836 1.0575 0.529387
214 1 0.895679 6.4741 0.389184 0.260551 0.219748 -0.20218
215 1 7.05296 7.21054 8.84788 -0.169021 -0.112412 -0.570846
216 1 3.65466 2.60003 8.90431 0.36413 -0.427101 -1.27106
217 1 5.67026 1.07018 1.91694 0.623885 0.12307 0.517621
218 1 0.30913 2.94289 8.41232 0.275785 0.180719 0.246341
219 1 4.82569 2.34709 0.864181 0.737337 0.946634 -0.145083
220 1 8.72155 3.48589 8.41953 1.04162 -0.333204 -0.188728
221 1 6.5948 2.63068 3.61829 -0.432523 -0.263734 1.28679
222 1 5.27639 5.24429 6.68736 0.223643 -0.447486 -0.714979
223 1 8.73927 5.36808 2.06584 -1.41299 0.339958 -0.589093
224 1 5.71801 7.79804 1.03468 -0.496925 0.749063 -0.527437
225 1 2.68573 1.85445 3.95996 1.65296 -0.0877604 1.36151
226 1 8.19102 7.37254 5.99665 -0.0275024 -0.17687 -1.05633
227 1 2.98012 3.96786 2.52155 0.617282 -0.193027 -0.342152
228 1 8.41818 8.40484 7.81684 -0.634476 0.713935 -0.69194
229 1 3.10016 7.55837 0.397627 -1.29939 0.0434061 -1.45572
230 1 3.20563 0.789155 6.75192 0.969189 -0.100323 0.584617
231 1 3.60719 7.47352 7.38358 0.425662 -1.2547 0.302783
232 1 1.74208 8.33426 7.9641 0.483968 0.4977 0.131999
233 1 7.84797 7.62644 8.22776 -1.62714 -0.80451 0.512841
234 1 5.28163 2.54251 9.25769 0.133374 0.890086 0.610369
235 1 0.880513 5.24028 4.50216 -0.147151 -1.15325 0.26732
236 1 7.41314 5.82516 6.31095 1.37414 -0.488209 0.155715
237 1 7.60339 3.50728 6.88434 -0.212198 1.01554 -0.414785
238 1 4.27921 2.01673 -0.0012615 -0.499306 -0.122494 -1.00685
239 1 8.98092 4.0757 1.16851 0.447739 0.0661145 -0.0226712
240 1 4.69495 8.96293 4.92217 -0.509098 -0.417007 -0.425336
241 1 5.46302 6.02915 3.09171 0.422517 -0.195668 0.958216
242 1 7.93062 3.13909 2.94973 -0.403118 -0.131625 0.166231
243 1 1.03491 0.849697 2.08862 0.177273 0.254765 0.0221395
244 1 7.8829 4.05474 7.80861 -0.0343473 0.733337 0.145618
245 1 7.20183 4.95406 2.77028 -0.551281 -0.21679 -0.21307
246 1 2.54279 6.87485 9.14554 -0.443046 0.0771022 0.235394
247 1 1.34422 2.08784 1.47071 -0.00878796 -0.166532 -0.522305
248 1 9.25811 8.80411 8.61145 -0.842165 -0.824748 -0.253962
249 1 1.36985 7.22551 4.40797 0.178634 0.0384134 -0.0518294
250 1 2.3161 8.97921 2.69344 0.48734 1.02021 -1.64754
251 1 2.07619 7.2357 7.40823 -0.651003 0.245129 -0.350127
252 1 3.49601 3.35564 3.43006 -0.40712 0.745744 -0.865571
253 1 0.9077 6.21385 6.01513 -0.808103 -0.213688 0.781444
254 1 5.22868 1.39917 4.08076 0.832037 -0.124238 1.60154
255 1 8.9816 8.16735 0.196876 -0.411593 -0.0746616 0.29751
256 1 8.96683 7.63939 8.47349 0.181771 -1.09215 -0.507168
257 1 4.77521 0.588912 4.66045 0.621326 -0.392489 -0.580006
258 1 4.21966 1.61559 2.87722 1.14976 -0.307952 -0.098734
259 1 2.74654 5.70964 1.45059 -0.736684 -0.0358572 -0.35007
260 1 5.03973 8.68762 7.70942 -0.740006 -0.318417 0.190937
261 1 5.06617 1.61843 8.72101 -0.793427 0.838435 -0.0950808
262 1 3.32838 4.39288 3.41361 -0.200954 -0.425218 0.992255
263 1 5.36824 3.99388 5.46237 -0.224955 0.519452 -0.820622
264 1 5.861 2.72206 2.29327 -0.0353659 1.51913 0.0151403
265 1 7.3847 5.62603 3.73179 0.518458 -0.481184 -0.352114
266 1 8.38417 6.39118 2.38548 -0.14534 -0.476773 0.124554
267 1 3.6734 8.42911 9.33032 0.205744 0.157513 -1.29083
268 1 5.98494 3.29787 6.72034 -1.22104 0.242587 -0.0539825
269 1 8.33944 6.11048 1.29962 -0.813876 -0.532501 -0.590876
270 1 7.89587 3.17466 5.97662 0.421496 0.75585 -0.521875
271 1 2.88853 0.265317 3.38048 0.0653073 0.525646 0.835257
272 1 6.48535 4.06705 5.66103 -0.243183 0.120082 0.294334
273 1 8.7841 6.02549 3.47044 0.806035 -0.543943 1.09288
274 1 6.65275 3.36174 0.507918 -0.522251 1.23198 -1.08753
275 1 2.87035 8.22399 7.81027 -0.28189 0.228914 -0.232484
276 1 5.52026 7.33869 0.0281947 -0.538559 -0.630109 -0.496776
277 1 6.19432 4.38638 4.70436 0.828817 -0.260492 0.336409
278 1 1.27103 4.91902 1.20861 -0.607686 0.966789 0.915761
279 1 0.137008 7.16652 0.222756 -0.410224 1.14489 0.0714128
280 1 5.68124 0.197944 7.7078 -0.944403 0.163115 -0.647091
281 1 5.97238 6.84987 3.52661 -0.0477642 -0.534219 -0.959013
282 1 3.20048 6.75021 4.32598 0.777399 -0.497658 -0.306687
283 1 9.05081 6.58616 5.99123 -0.428807 1.08107 -0.140922
284 1 3.85781 0.545411 8.66747 -0.449002 1.11917 -0.0578008
285 1 4.33184 4.65005 8.55118 -0.334936 0.518146 -0.233935
286 1 2.38929 0.656521 7.31509 -0.880783 0.335579 -0.863042
287 1 8.46847 3.55125 1.98462 -0.045028 -0.870388 0.474429
288 1 3.87228 0.0718277 1.95169 -0.401772 -0.00343815 0.828679
289 1 6.57793 4.3315 2.22821 -0.436233 0.398812 -1.06826
290 1 2.371 5.14753 3.71647 -0.38785 -0.490184 -0.0823783
291 1 1.36463 0.54878 7.07837 0.820703 0.0989674 0.403999
292 1 2.01852 5.14631 4.6499 -1.28167 1.42439 -0.103586
293 1 3.46103 7.63155 4.86968 0.32422 -0.103663 0.133304
294 1 3.71437 6.39245 7.01895 -0.709779 -0.527691 0.281601
295 1 3.54336 6.08071 5.13218 -0.145684 1.26713 0.0527721
296 1 5.40878 3.34764 4.50066 -0.22696 1.08128 -1.07095
297 1 4.20305 3.62746 9.13965 -2.18857 -0.565872 -0.426497
298 1 8.00611 2.28197 0.689376 0.15625 -0.951877 0.0988931
299 1 0.642657 7.94419 1.52638 -0.89543 0.536176 0.406558
300 1 6.34071 1.53316 1.20048 1.44351 0.258061 -0.211991
301 1 0.534308 2.08986 7.79178 -0.337402 0.306841 -0.181673
302 1 6.50183 8.37891 6.1451 0.599326 -0.84834 -1.13094
303 1 4.57393 4.43863 6.82446 0.470739 1.05132 0.354671
304 1 6.49172 1.21012 0.157052 -0.912872 0.669869 -0.265477
305 1 1.4922 4.43905 0.299116 0.0401884 -0.290118 -0.374979
306 1 8.70613 0.150898 6.84686 -0.34093 -0.0535483 -0.051075
307 1 4.61775 6.54293 1.69195 -0.462478 1.82361 -0.280208
308 1 6.06101 8.79088 3.76573 1.72869 1.23674 -0.0261959
309 1 3.64841 5.04093 4.74822 -0.561365 -0.233204 -1.28586
310 1 9.04314 2.18674 4.1329 -0.249611 -2.02036 -0.844297
311 1 5.76501 2.29002 8.35021 -0.749153 0.617087 -0.0990241
312 1 4.11181 7.14528 2.39145 1.04632 -1.24544 -1.94453e-05
313 1 9.02217 7.71121 1.20216 -0.252906 -0.443801 0.698644
314 1 5.67146 4.81736 8.11229 -0.0789481 -0.624595 -0.141552
315 1 6.01712 5.96071 6.63348 0.394466 -1.08892 0.370685
316 1 1.37018 8.473 2.9244 0.368151 -0.173333 0.0248973
317 1 3.7043 2.77862 0.522906 0.921969 0.873443 -0.244882
318 1 0.362905 2.77841 5.24868 0.109703 -0.277855 -1.15978
319 1 7.54179 8.09788 6.41754 -1.08845 0.765098 0.69476
320 1 8.24318 2.44655 2.31821 -0.547475 1.05584 0.641621
321 1 4.62967 8.79774 5.97691 -0.485283 -0.524453 -1.23236
322 1 0.300682 0.498568 7.07756 -0.118561 0.154275 -0.393182
323 1 3.48228 5.60524 3.45881 0.789312 0.143582 -0.155919
324 1 5.50123 1.555 0.301858 0.207168 0.299977 0.909411
325 1 4.83591 2.03444 4.9399 -0.133161 -0.733254 0.852433
326 1 7.78025 9.4154 7.44698 0.791723 0.387903 -0.47574
327 1 0.910734 7.03104 8.84931 -0.351163 -0.111281 -0.114743
328 1 4.55104 5.55287 1.90004 -1.2295 -0.811673 0.72685
329 1 1.97791 3.52389 4.36778 0.124913 -0.305707 0.590573
330 1 3.40918 2.55212 4.28951 -0.422147 -0.215594 1.23388
331 1 4.53979 3.75009 6.04165 -0.140772 -0.145917 0.469507
332 1 1.57991 4.17105 7.08393 0.0903694 0.32906 0.630709
333 1 6.57907 6.45122 0.85497 0.727886 -0.52757 -0.61455
334 1 3.56611 0.176227 7.73207 -0.334728 -0.0422494 -0.000338107
335 1 3.76178 1.87686 1.0372 0.00746403 -0.689822 0.666942
336 1 0.872339 0.366464 6.12628 -0.259388 -1.20893 0.552848
337 1 8.67414 3.50793 0.267507 -0.889772 -0.731019 -0.638038
338 1 5.88089 2.05518 3.18949 -0.0102979 0.651646 -0.229242
339 1 8.30631 8.45139 8.84347 0.640722 -0.376957 0.176276
340 1 2.74541 5.0143 2.7278 0.153277 0.145906 1.38107
341 1 1.50191 1.12716 0.2877 0.364938 -0.262591 1.12759
342 1 3.76687 7.97437 8.39897 0.0471937 -0.225735 -0.0973078
343 1 1.93708 3.21283 2.85421 0.621139 0.179434 -0.0807081
344 1 3.15892 0.877519 4.63401 -0.0500158 0.207131 -0.126448
345 1 6.90318 8.49319 4.2699 -0.900907 -0.337017 0.0901996
346 1 0.663644 5.84869 6.99235 -0.784434 0.119109 0.537719
347 1 8.93152 4.18993 7.52637 0.0925447 -1.27891 0.970417
348 1 5.20148 3.06829 7.66214 1.17115 0.446599 0.283835
349 1 4.01958 1.19837 1.8815 0.172655 0.213294 0.653349
350 1 4.59381 3.66012 3.77657 -0.0806872 0.289793 0.301368
351 1 7.15689 9.06542 2.00943 -1.06853 0.256853 -1.59293
352 1 5.12722 5.06516 9.02124 -1.27586 -0.0315485 0.0235531
353 1 1.27112 1.18176 4.68443 -0.345758 -0.143281 0.0581402
354 1 2.80935 0.508961 8.40939 -0.218536 0.961232 0.775161
355 1 8.76821 3.58871 6.4262 -0.0139798 0.633275 0.485451
356 1 0.474992 4.32015 0.671091 -0.431149 -0.449032 0.564615
357 1 5.68274 3.13307 1.22024 -0.648355 0.229413 0.112721
358 1 0.964893 8.81687 8.48343 -0.588612 0.473779 0.248023
359 1 3.13286 3.70686 1.16033 -0.957032 -1.55939 -0.550225
360 1 5.90375 3.12282 5.57383 1.54099 -1.03896 -0.0172578
361 1 3.45746 1.96887 2.18789 0.222289 -1.06368 -1.12039
362 1 6.63096 3.22922 1.66011 0.572516 -0.0184908 -0.48153
363 1 8.24686 7.19018 1.79017 -0.645818 0.551097 0.590718
364 1 4.27162 1.248 8.06312 -0.449197 0.525563 0.228097
365 1 1.2094 8.85582 1.81471 -0.179379 -0.217747 -0.122717
366 1 6.67004 7.96186 5.18629 0.126068 -0.799524 0.444689
367 1 7.83324 0.833515 4.77111 0.0895664 0.399243 -0.42232
368 1 2.48944 7.46628 1.36059 0.273099 1.68676 -0.77638
369 1 7.58276 2.35699 5.32852 0.528112 -1.13148 1.17819
370 1 4.77297 1.35642 1.25486 -0.239531 -0.251271 -0.420675
371 1 8.17208 0.916035 2.70613 0.145202 -0.61163 -0.0116044
372 1 5.09871 9.3155 0.125164 -0.387678 1.42002 0.596892
373 1 7.87073 0.879504 6.88129 -0.300191 -0.431762 0.883465
374 1 6.90503 6.9219 3.88773 1.41047 0.381748 0.246477
375 1 5.17065 5.8315 5.77375 0.289033 -1.17383 -0.878928
376 1 2.563 1.69717 8.04466 -0.304317 -0.599639 0.499452
377 1 2.82692 5.15853 8.10519 0.896279 0.367063 -0.0117703
378 1 8.19757 -0.0161197 2.03748 1.08043 -1.31409 1.14464
379 1 9.07809 3.56349 5.43881 -0.505634 -0.470054 0.414029
380 1 8.60967 7.1629 3.09897 0.279276 0.745376 0.509955
381 1 1.67433 5.36141 6.92431 0.689804 -0.450255 -1.05477
382 1 6.56616 2.07706 2.09608 -0.66525 -0.354427 0.285363
383 1 7.01061 2.37375 1.14194 0.209138 -0.48624 0.177534
384 1 7.10588 8.35918 1.13122 0.761865 0.122143 -0.373154
385 1 4.99098 8.94255 1.93783 0.458322 0.980802 -0.214627
386 1 0.236805 2.17486 1.19986 1.30264 0.622641 1.13768
387 1 7.35749 1.66232 2.57909 -0.90256 1.01507 1.10481
388 1 4.77558 5.99199 8.39086 1.07045 0.134126 0.700423
389 1 7.35603 4.24967 6.09758 0.800345 -1.31593 0.108864
390 1 8.43532 4.47149 4.78902 1.36297 1.41454 -0.239429
391 1 4.65734 0.932542 0.343115 -0.0321114 0.54756 -0.456555
392 1 2.32803 0.881321 3.94957 1.05036 -1.08524 -0.490227
393 1 4.59864 0.202305 7.75289 -1.74645 0.686509 -0.245902
394 1 9.32833 4.49956 6.08601 -0.288951 0.467935 -0.753976
395 1 8.04278 5.32676 8.82404 -0.234966 0.348807 -0.350488
396 1 2.96149 1.78612 5.18118 -0.213172 0.727979 0.165339
397 1 7.08343 3.30314 5.19191 1.04687 -0.32032 -0.82333
398 1 7.44431 7.04738 1.08258 -0.310205 0.127661 -0.557556
399 1 2.04526 1.58702 2.18738 0.707206 0.149982 0.335405
400 1 6.72773 8.1154 2.26559 -0.498959 -1.28296 0.45757
401 1 3.47223 1.8207 6.13817 -0.667155 -0.946409 -0.145164
402 1 7.32376 0.180391 5.46188 -0.291541 0.471076 -0.868408
403 1 0.779484 2.99711 1.66039 1.17589 -0.294611 -0.493803
404 1 5.20033 6.98817 2.50271 -1.35213 0.14073 -0.470089
405 1 4.13615 1.6557 7.0112 0.784368 -0.334581 -0.580331
406 1 2.29001 4.23576 5.21097 -0.253015 0.393607 0.208151
407 1 5.45392 8.33432 0.0892592 -0.404982 -0.325152 -0.44142
408 1 4.55719 2.84271 8.45288 0.878648 0.903558 1.39067
409 1 2.74704 1.34951 2.92702 1.14694 -0.537432 0.7737
410 1 0.318322 3.98818 6.8668 0.492817 -0.117673 -1.10775
411 1 6.50905 8.98298 5.30089 -0.938729 1.0141 0.32735
412 1 5.52591 0.392566 3.80569 1.54358 1.05468 -1.61869
413 1 2.13007 7.7772 0.449454 0.484762 0.769247 0.751006
414 1 1.38979 7.57755 3.39563 0.196917 0.638051 0.464678
415 1 1.38856 3.8592 1.21782 -0.450989 0.7366 0.203871
416 1 0.0689907 8.8277 3.48614 -1.50687 1.23825 -0.794133
417 1 1.40963 8.03131 5.00985 -0.341972 0.00678742 -0.663107
418 1 3.26362 0.438422 0.963212 0.326631 0.410557 0.286411
419 1 7.56227 2.28366 3.40052 1.0424 -0.306313 0.189716
420 1 9.40752 1.74248 4.94535 1.1377 -0.828742 0.339743
421 1 7.92662 8.39096 1.93401 -0.888799 0.344287 -0.447613
422 1 3.14394 2.75145 5.81634 -0.000117514 0.139213 -0.629028
423 1 8.10124 7.47991 9.23265 1.37092 0.715564 -0.189166
424 1 7.56514 8.49353 5.47091 0.328343 -0.827193 0.228859
425 1 1.71124 1.93588 5.31191 -0.64306 0.939328 -0.546562
426 1 9.09602 0.787447 8.55085 -1.57579 -0.488087 -0.138452
427 1 6.33084 5.82135 5.58555 0.164001 0.883598 0.570779
428 1 3.42609 2.87325 6.95375 -0.452084 0.197727 -0.508318
429 1 4.84176 3.23883 0.513447 0.128033 0.643681 -0.434621
430 1 2.55341 8.78148 6.17844 -1.27732 -0.540426 -0.908553
431 1 9.18237 7.48603 7.40905 -0.693989 0.651856 1.01851
432 1 5.9512 0.797598 6.97412 1.04023 0.00986764 0.870476
433 1 3.73283 2.21264 7.80143 -0.852845 0.416418 -0.00903599
434 1 4.78619 4.35348 2.22855 -0.531552 0.708562 0.0557652
435 1 1.89493 0.639516 2.87134 -0.251541 0.171245 0.654687
436 1 2.07748 3.4166 9.16061 -0.623075 1.44677 -0.578412
437 1 8.321 5.03014 7.80166 0.164311 0.282556 0.989333
438 1 1.60445 9.03656 0.0463989 -0.0352142 -0.325025 -0.12632
439 1 5.2722 6.25231 4.04073 -0.411531 -1.1367 0.257673
440 1 0.549514 4.43251 2.7649 -0.831227 0.52358 -1.01601
441 1 9.06186 0.809596 2.12349 0.795937 0.164987 -1.00289
442 1 4.95221 6.93531 0.775808 0.804121 0.427716 0.862121
443 1 3.84053 6.74301 8.11117 -0.498726 0.205618 -0.106261
444 1 7.80568 6.54538 4.34527 0.127514 0.393223 -1.36144
445 1 4.98146 0.615636 8.59866 -0.729954 -0.794934 -0.577686
446 1 7.39961 5.9409 2.38721 0.489483 -0.169319 0.533114
447 1 1.15971 7.44488 0.616658 -0.668101 -0.458124 -0.11634
448 1 4.56788 7.67977 7.70745 -1.02928 -0.485924 -0.526172
449 1 2.19057 1.44533 8.95992 -0.480979 -0.136655 0.256627
450 1 2.0499 9.03593 7.1304 0.848334 0.189802 0.481662
451 1 6.8532 0.653874 8.77146 0.46455 -0.446487 0.662716
452 1 5.5776 6.67572 8.43 1.07509 0.186112 -0.296463
453 1 5.43864 7.77316 8.33314 0.564094 -1.86729 -1.38223
454 1 5.64171 6.44779 5.08162 0.295119 -1.1617 -0.292337
455 1 4.26472 5.46197 6.75779 0.363847 -0.529928 0.052716
456 1 0.996279 6.42073 2.29149 0.736751 0.493054 0.271306
457 1 4.87662 4.28433 0.226942 0.286352 0.333593 0.417776
458 1 8.81595 7.40725 4.37704 0.570335 0.292009 0.737605
459 1 3.0702 7.03467 2.22388 -0.628243 0.81524 0.282618
460 1 8.18386 2.63187 8.93385 0.000905916 0.273247 0.128604
461 1 9.04229 4.77756 3.28735 0.103203 0.750713 0.0352386
462 1 0.978121 6.61257 3.35848 -0.871533 -0.628643 0.696612
463 1 2.00472 0.437386 9.05094 0.803108 0.275406 0.689804
464 1 9.32785 6.26899 0.801952 -1.0279 -0.0691972 -0.744205
465 1 1.845 8.06483 2.07388 -0.740536 0.471949 0.108643
466 1 8.0066 7.89969 1.00339 0.521268 0.211227 0.545907
467 1 5.1773 1.20191 2.94455 -0.767124 -0.946919 0.0789645
468 1 6.708 8.88825 2.96394 -0.191519 -0.303405 0.819533
469 1 2.43482 2.06296 1.35813 0.0105694 0.903518 -0.141361
470 1 6.74348 5.27985 4.69335 -0.171056 -0.472214 -1.21511
471 1 2.5788 8.71971 0.250059 -0.108906 0.71997 -0.152743
472 1 2.41115 7.08017 6.32461 0.497937 1.02353 0.496115
473 1 8.85124 1.15652 6.82334 0.272544 -0.273022 0.149177
474 1 6.79987 1.73785 8.69571 0.73757 0.478195 0.0952215
475 1 4.36698 8.99712 8.75243 0.701678 0.309098 0.818045
476 1 2.96495 5.70977 4.37609 0.215537 0.678497 -0.876147
477 1 8.37451 6.86565 7.74603 -0.413174 1.07244 0.518766
478 1 5.70693 9.27566 4.69164 -0.0510422 -0.438782 0.201698
479 1 7.39966 0.711903 2.04337 0.343935 0.64961 0.0893671
480 1 5.98372 6.79303 6.04592 0.0109712 0.198775 -0.434109
481 1 2.79714 4.42107 4.36724 0.602283 0.620126 -0.388747
482 1 4.61209 6.27148 5.04477 0.407345 0.223418 0.358008
483 1 1.07582 5.09541 3.45661 -0.718268 -0.254077 -0.301166
484 1 0.0904124 3.7039 9.03278 -0.00968905 0.338429 -0.289624
485 1 6.80491 5.76344 7.29032 -0.825165 -0.0117148 -0.34743
486 1 1.72822 4.56501 2.786 0.267221 -0.366099 0.150676
487 1 0.676647 6.48718 4.4436 0.0904255 0.443039 0.609031
488 1 6.55875 2.29138 5.54318 0.847287 1.09077 0.361858
489 1 6.49985 8.45872 0.434447 -0.554934 0.270212 0.426533
490 1 5.48371 5.93032 2.06904 -0.0320183 -0.88724 -0.0991252
491 1 4.81038 5.24963 2.85947 0.585158 -0.860225 -0.638231
492 1 1.55788 9.04986 5.48181 -0.144317 0.504082 -0.909296
493 1 7.97964 4.54544 0.601204 1.43886 0.194926 0.237434
494 1 4.23116 4.05249 2.93514 -0.562891 0.846963 0.161106
495 1 3.16385 8.28803 1.07806 -0.810413 0.682933 -1.43744
496 1 2.63216 0.0450727 5.48129 -0.182541 0.0363523 0.393101
497 1 6.3963 7.59804 6.82412 -0.845824 0.590889 -0.630781
498 1 2.54929 1.21433 0.502181 -0.864244 1.75593 0.823191
499 1 3.5475 3.06521 2.3329 -1.81134 0.908736 -0.128812
500 1 6.63468 6.40142 8.2283 -0.526429 -0.599888 0.0153061
501 1 5.91673 4.15598 3.69652 -0.232983 -0.247522 -0.858788
502 1 7.82078 3.96585 3.98399 -0.0229572 0.416943 0.311694
503 1 3.37816 1.24864 7.63485 -0.399329 -0.154736 0.105044
504 1 2.97117 0.49166 2.33703 -0.320917 0.612048 0.090885
505 1 7.68372 3.24993 0.461035 -0.901145 0.744268 -0.165116
506 1 5.6813 5.8637 7.64149 -0.300367 0.0880282 -0.0758317
507 1 5.57158 7.71954 7.34153 0.0384922 0.655687 0.634581
508 1 0.827285 8.12199 3.99531 -0.846689 0.400202 0.360758
509 1 3.20386 2.70554 1.44106 -0.157068 0.0161645 -0.802841
510 1 5.76921 4.79289 0.66196 0.9262 0.901601 0.99957
511 1 6.29017 1.74213 7.61758 0.291944 0.758492 -1.17519
512 1 1.96074 6.20469 1.91936 0.81995 0.673267 0.302186
513 1 4.80538 7.63192 1.58414 -0.202433 0.924673 -0.982967