ITEM: TIMESTEP
30
ITEM: NUMBER OF ATOMS
1000
ITEM: BOX BOUNDS pp pp pp
0.0000000000000000e+00 9.4000000000000004e+00
0.0000000000000000e+00 9.4000000000000004e+00
0.0000000000000000e+00 9.4000000000000004e+00
ITEM: ATOMS id type x y z vx vy vz
1 1 4.74965 0.24445 1.27465 0.644354 -0.329443 1.06612
2 1 7.936 2.91521 7.81794 0.690722 1.39531 -0.67755
3 1 0.0665309 3.18442 3.71408 -0.296913 1.03094 -0.0646964
4 1 0.567231 8.09757 6.79644 0.540391 -0.289894 -0.562606
5 1 5.64534 2.23253 5.82821 0.052873 -1.03056 -1.02836
6 1 7.07076 7.37968 6.08376 0.406699 0.584245 -0.814837
7 1 1.28461 8.414 0.780303 -0.560012 0.79763 0.239293
8 1 2.3202 2.16623 6.07007 0.433804 0.0848227 0.559032
9 1 1.25793 2.81082 4.74768 -0.0345607 0.157439 0.748389
10 1 2.94037 9.08987 1.68459 0.290334 -1.13575 0.761425
11 1 8.38326 6.95613 0.782954 0.328103 0.895909 -0.383407
12 1 6.87648 3.13462 2.57248 -0.820049 0.701133 -0.867659
13 1 8.25781 1.68801 6.15292 1.6783 1.18062 0.180653
14 1 3.5999 6.14801 1.64595 0.717462 -0.485749 0.891893
15 1 7.70626 3.03056 1.5259 0.488407 -0.273061 0.236188
16 1 1.25149 3.06477 8.57169 0.183557 0.0673284 -0.460695
17 1 8.27075 4.41087 6.77826 -0.146551 1.7087 0.596803
18 1 0.0893157 3.41813 2.51975 -0.104662 0.669593 0.480687
19 1 6.22008 2.92966 8.9909 -0.219282 -0.606133 0.922417
20 1 4.23027 3.34055 6.98591 0.631615 -0.426059 0.37018
21 1 1.66512 4.94631 5.77206 -0.210397 0.229741 -0.844382
22 1 2.87956 3.38195 4.80526 -1.07766 0.560371 0.247473
23 1 5.16858 3.67204 8.69954 -0.673082 0.256438 -1.13318
24 1 2.36244 4.17902 8.19381 -0.234298 -0.195278 0.589005
25 1 6.1667 2.95169 7.63849 -0.444456 -0.178724 -0.629182
26 1 2.06933 3.08643 5.36295 -0.604606 -0.0276145 1.16641
27 1 8.32472 0.924146 7.71252 0.0790859 -0.650604 -0.294746
28 1 4.39252 6.27699 3.37906 0.187561 -0.961062 -0.514554
29 1 3.07195 0.088859 9.39938 0.485697 -1.34036 0.223555
30 1 7.4097 2.88385 4.40037 -0.391843 0.827862 -0.70275
31 1 8.62243 3.02008 1.08604 0.579864 0.664342 0.0885846
32 1 4.38695 0.280362 5.63618 -0.515391 -0.0622803 -0.52172
33 1 1.81033 7.25006 8.40022 -0.0817961 0.262179 -0.0742109
34 1 3.51443 7.32765 1.62268 -0.641611 -0.399555 -0.220387
35 1 9.33752 0.690903 5.97122 1.36674 0.920521 -0.460183
36 1 6.44484 6.41606 2.01877 -0.0478026 -0.470672 -0.545885
37 1 8.51339 1.55134 9.28701 0.455629 -0.588514 0.255204
38 1 1.3089 1.63793 2.95901 0.214799 -0.0980019 -0.121763
39 1 0.435991 0.868541 4.19804 -0.538275 -0.98247 -0.0242609
40 1 2.30645 4.01564 0.602534 -0.70385 -0.541589 -0.181805
41 1 6.14076 0.0413047 6.25184 0.636942 -0.221896 -0.334757
42 1 1.41836 2.00019 8.82265 0.414585 -1.02891 -0.117477
43 1 1.92037 3.00199 1.69859 1.22795 -0.722832 -0.311442
44 1 7.46493 1.24392 5.65068 -0.175199 -0.461002 -0.272471
45 1 6.4324 2.41378 6.57822 -0.514475 -1.07889 0.516556
46 1 7.71404 6.72827 3.21713 0.782553 0.226396 -0.494374
47 1 6.11939 5.67537 0.298435 -0.9446 0.656722 -0.927747
48 1 7.6608 7.62881 3.86212 -1.15192 0.731265 -0.0664278
49 1 3.39237 4.57598 6.74604 0.918282 -1.25308 -0.107888
50 1 8.69422 8.04647 3.7023 0.587823 0.441038 1.22109
51 1 6.26188 7.30037 2.72934 -0.504396 -0.532079 0.385122
52 1 1.14718 3.5548 0.17723 -0.243151 -0.141808 0.49869
53 1 5.57052 2.98351 3.18007 0.207668 1.46438 -0.991739
54 1 9.32202 6.0781 5.31916 1.33283 0.0546599 -0.955743
55 1 8.7434 5.17241 5.46491 0.294018 -0.366729 -0.462515
56 1 0.0829861 4.39863 5.07342 -1.09029 0.790839 0.495447
57 1 0.250546 9.0239 6.40837 0.0508914 0.0916265 -1.28536
58 1 5.06258 3.92723 1.25826 0.560294 0.977777 -0.394368
59 1 0.457601 7.44846 4.71673 -0.0488702 0.581089 0.935942
60 1 0.39365 5.47807 0.496691 -0.580624 0.729443 0.44643
61 1 5.62369 9.01175 8.81447 -0.247859 0.267582 -0.0857862
62 1 0.344824 0.417202 1.40111 0.383003 0.645666 0.473511
63 1 7.29833 7.0966 7.70319 0.272966 -0.937358 0.172139
64 1 3.33833 5.44051 8.98921 0.141951 -0.439015 -0.647202
65 1 2.32479 2.61704 8.86013 -0.104081 -0.203427 0.0713857
66 1 6.34283 4.80908 9.13992 -0.314575 0.827962 1.1895
67 1 6.36206 5.45494 2.40965 -0.0261646 -0.411245 0.242465
68 1 4.09255 5.11283 0.21795 0.991292 1.43798 0.719012
69 1 2.40207 2.98538 0.633077 0.677292 1.28159 -0.0306837
70 1 0.296235 1.47354 3.29485 -0.0577461 -0.386367 -0.218801
71 1 7.26482 5.92286 1.26561 -0.0251862 -0.865801 -0.83405
72 1 7.02181 4.89439 1.58379 0.615477 -0.125748 -0.938504
73 1 2.12555 8.63416 1.27635 -0.767448 -0.995466 0.356158
74 1 4.58604 5.15118 7.74927 0.302977 -0.866423 0.636549
75 1 8.36971 9.22431 5.07362 -0.0846803 0.396037 -1.09479
76 1 6.74167 7.95993 3.37393 0.558987 0.5975 1.17567
77 1 4.75036 4.04747 7.79942 0.613601 1.56704 -1.7373
78 1 2.39962 4.92498 9.22245 1.09987 0.471702 0.117566
79 1 7.64858 7.81081 2.84249 -0.0194577 0.15253 -0.11651
80 1 0.0277346 6.54749 2.80599 0.54001 -0.443481 1.45358
81 1 5.92796 0.283872 2.6795 -0.511955 -0.0412333 0.856597
82 1 9.45284 3.11579 7.3791 1.09129 0.834471 -0.983421
83 1 3.34167 8.45988 4.43547 -0.861865 -0.0811207 0.467406
84 1 0.683983 4.79021 7.39559 0.646127 -0.763652 -0.256854
85 1 2.42385 2.26213 3.17301 0.35487 -1.47864 0.78639
86 1 3.22994 4.53228 8.66271 0.410604 0.527991 0.292504
87 1 9.05997 4.44508 2.14071 -0.431509 -0.158159 -0.714799
88 1 0.567373 1.77499 2.15313 0.14179 1.01173 0.83561
89 1 4.39388 2.08413 1.82737 -1.14494 0.0293667 -0.580204
90 1 7.12912 7.00591 2.32158 0.112988 -0.00711221 -0.112939
91 1 4.58755 2.72018 3.36188 -0.0632645 -0.117352 -0.687229
92 1 0.707369 1.22566 8.71086 0.131881 1.6751 0.410656
93 1 3.97474 5.83738 2.48858 -0.121636 -1.00602 0.196898
94 1 4.84279 8.45945 1.11792 -0.315099 -0.92198 -0.403729
95 1 6.20878 6.06201 4.2701 -0.10713 -0.432385 -1.36568
96 1 3.95524 8.63764 7.58285 1.12799 0.300835 -0.200911
97 1 5.6676 4.71753 2.9225 0.822924 0.940181 0.1159
98 1 8.55356 8.66821 2.94969 0.397431 -0.174826 -0.439575
99 1 0.85052 0.0448328 2.64346 -0.605986 0.332513 -0.491543
100 1 6.6976 0.128084 7.83079 -1.49018 -0.361983 0.302064
101 1 8.66568 5.10829 0.847509 -1.11187 0.549908 0.232273
102 1 7.65034 6.41666 8.71688 0.267238 0.544159 0.520517
103 1 4.82992 0.58782 2.36887 -0.0513385 -0.00787101 0.00429177
104 1 8.75862 0.0382566 1.24052 -0.597088 -0.401666 -0.488434
105 1 7.52945 8.8437 8.32307 -0.197849 0.27002 -0.296777
106 1 3.94527 3.15413 7.94135 -0.431296 0.269487 0.412833
107 1 1.22348 7.11921 1.62744 -0.367835 0.513709 0.944549
108 1 9.03671 5.56325 9.02389 0.108183 -0.354493 0.185068
109 1 5.67046 1.61993 6.64216 0.345299 1.37102 0.6572
110 1 2.6452 7.92466 6.66841 -0.0484193 -0.933562 -0.369361
111 1 2.26819 0.17081 0.794837 -0.511991 -1.33418 0.239228
112 1 1.30756 5.94848 5.22161 0.362329 0.767846 0.317568
113 1 9.39866 8.97016 7.45726 0.300336 0.148894 0.47892
114 1 2.09431 6.32739 4.61365 -1.24154 0.834231 0.72243
115 1 5.84846 8.58716 7.12372 -0.0562121 0.0780312 -0.738107
116 1 2.20375 7.84772 2.92832 -0.261979 0.352459 0.844795
117 1 7.3565 8.25486 -0.0341862 1.47321 0.114207 -1.61322
118 1 0.478228 0.297333 8.06918 -0.293739 -0.0140807 -0.20453
119 1 7.64087 0.0983783 2.94562 0.921177 1.20747 -0.588458
120 1 7.42213 6.75018 0.299459 0.342715 0.222326 0.193731
121 1 5.79941 5.70799 8.70602 -0.264725 0.558835 -0.719074
122 1 0.265621 8.80781 0.978027 0.0717028 0.192295 1.24298
123 1 1.54904 2.38054 6.85946 -0.211481 -1.19542 0.938055
124 1 3.37645 6.49491 3.0932 0.0154372 -0.358564 -0.202439
125 1 0.76342 2.38008 3.89716 0.105511 0.33669 -0.226731
126 1 0.277216 6.95755 6.8586 0.0655566 0.696889 0.0472227
127 1 1.80344 0.173295 4.58558 -0.0239938 0.970446 -0.322714
128 1 4.90345 2.90625 5.33358 -0.570325 0.0183937 -0.592766
129 1 4.7004 4.81341 1.01039 1.12547 -1.01389 0.467716
130 1 8.32896 0.710702 5.79005 1.08542 0.130826 0.878438
131 1 9.07539 0.767404 5.01269 0.576899 -0.274286 -0.545443
132 1 6.79322 3.74892 4.19345 -1.2621 -0.301224 0.201834
133 1 4.05151 3.78283 4.23512 0.0904425 -0.0118848 -0.0352919
134 1 6.14602 2.32611 0.509267 0.363783 -0.261229 -0.546817
135 1 8.56687 1.70964 5.12155 -0.08587 -0.666433 0.803333
136 1 3.82135 5.79741 4.04166 -0.0202968 -0.205531 0.0193485
137 1 2.91868 2.68305 7.97584 -0.780309 0.13625 -0.547337
138 1 1.4482 6.972 5.47233 1.3284 -0.300477 -0.311351
139 1 0.778846 0.286056 4.9669 -0.91958 0.555929 -0.387639
140 1 1.12024 3.749 3.45345 -0.76748 0.621556 -0.229576
141 1 2.32655 3.15492 6.47032 -0.594391 -0.56849 0.41679
142 1 3.4746 3.52639 6.25443 -1.60724 -0.805421 0.579117
143 1 3.12211 6.33256 8.61471 -1.15389 -0.502295 0.378399
144 1 8.91309 8.54672 1.73953 -0.999418 0.461407 -0.169079
145 1 0.558486 6.52435 7.84759 -0.565461 -1.04392 -0.447735
146 1 5.80986 8.90773 1.0602 0.323787 0.424724 -0.555002
147 1 1.3384 7.28286 6.47549 -0.183652 -0.174057 -0.0956437
148 1 9.11774 4.55247 8.41409 -0.729258 1.0397 -0.539548
149 1 1.82318 6.80792 2.79213 -0.0144408 -0.784231 -1.35707
150 1 1.10071 7.40776 7.59323 -0.81413 -0.644999 -1.07399
151 1 3.96898 8.34145 5.32717 0.271612 0.559269 0.810829
152 1 4.40216 9.22508 2.90746 -0.928282 0.488644 -0.897279
153 1 8.78302 2.80874 2.98768 -0.0489579 -1.46812 -0.257331
154 1 5.86863 6.75551 7.34312 -0.97414 -0.0612247 -0.0610358
155 1 5.42102 1.18684 5.72481 -0.273431 0.691565 0.0947043
156 1 3.7578 0.73463 2.81997 0.955992 0.452435 0.543795
157 1 8.43877 9.28683 8.01372 0.0772521 -0.134749 0.209615
158 1 0.50592 8.49888 4.78231 1.00576 0.0684852 -0.151717
159 1 6.20113 7.71796 4.15794 0.38002 0.624794 -0.875729
160 1 9.09315 1.01998 0.874163 0.330654 0.956356 0.104775
161 1 2.14705 5.08853 0.800805 1.03382 -0.533986 -0.985081
162 1 7.27472 4.48795 8.36105 -0.182357 0.755056 0.0951674
163 1 6.41629 5.13389 8.13813 0.0462039 -0.585698 -0.156042
164 1 1.6274 5.70937 2.9013 0.717882 -1.14961 -0.168259
165 1 3.58073 1.48594 8.65553 -0.536354 -0.727592 -0.496999
166 1 8.24395 5.1364 3.9389 -0.573301 0.248647 1.45523
167 1 0.548745 8.86548 0.0219301 -0.919001 -0.591168 -1.65818
168 1 6.88406 4.88181 0.599066 0.132348 -0.506524 1.77802
169 1 0.082423 5.53584 8.07418 0.33256 0.815957 -0.351383
170 1 2.29451 7.19211 3.89202 0.784626 0.790932 -0.398275
171 1 0.809889 5.29326 2.24123 -0.32933 -0.165379 0.613778
172 1 6.46107 6.5236 9.25721 0.362822 -0.333372 -0.111672
173 1 6.1573 8.94249 1.95168 0.59875 -0.580301 0.072611
174 1 2.19289 3.36542 7.48144 -0.0283746 1.19946 1.49382
175 1 4.09093 0.015512 9.29761 0.265382 -0.0574304 -1.01894
176 1 3.44226 7.50339 3.74469 0.295628 -0.234971 -0.314384
177 1 1.12826 0.299428 8.89457 -0.105769 1.78346 0.0862014
178 1 4.14722 6.43415 6.07773 0.750131 1.07264 0.0242932
179 1 7.20318 4.04298 9.258 0.572521 -0.608116 -0.335326
180 1 4.49278 7.308 6.80116 0.253124 -0.634776 -0.137764
181 1 7.8188 5.67606 0.314142 -0.334258 -0.507478 0.795722
182 1 5.63344 7.94164 2.09032 -0.800936 -0.21171 0.617143
183 1 4.67996 6.99934 8.64738 0.0727249 0.498121 0.58376
184 1 7.89845 6.52708 6.86025 0.946365 1.17981 0.616833
185 1 8.02271 1.99369 4.35957 0.293213 -0.260325 0.00936546
186 1 7.52882 7.32698 5.08752 0.142024 -0.244094 -1.1817
187 1 8.02047 4.52651 1.52345 -0.603829 -0.602638 -1.02875
188 1 9.22795 6.58925 8.57143 -1.01877 -0.366605 0.42179
189 1 8.08149 3.53442 4.92396 -0.0943742 0.111823 0.366689
190 1 8.73029 3.75218 3.24025 -0.670953 -0.129265 1.10965
191 1 6.97575 2.70754 8.32961 -0.281284 -0.368065 0.09678
192 1 8.18759 5.57074 6.94176 0.944521 0.0548573 -0.94568
193 1 3.98415 7.23482 5.35137 1.0188 0.141293 0.049388
194 1 5.22282 0.930202 7.31198 0.13314 0.508875 -0.29733
195 1 0.401508 8.05146 7.99504 -0.480667 -0.591226 1.08582
196 1 5.62833 6.87636 1.59741 -0.689014 0.0408843 -0.787335
197 1 3.8228 3.34487 5.22863 -1.07421 1.46873 -0.272214
198 1 0.888978 4.73034 6.38749 0.410239 0.34157 0.0390608
199 1 8.2692 5.93719 5.96977 0.586601 0.736471 -1.53958
200 1 4.81869 7.9254 5.18304 -0.456684 1.4659 1.04141
201 1 0.28588 3.336 0.711764 0.0069938 -0.659401 0.0128293
202 1 8.89903 3.69324 4.40002 0.0452777 1.25618 0.721616
203 1 9.23984 5.66313 6.32138 0.139009 -0.228257 -1.1973
204 1 7.08853 1.80096 4.81261 0.85023 -0.119969 0.162792
205 1 1.3904 8.98703 6.38902 -0.826743 0.386501 1.28246
206 1 4.83912 9.09175 3.85187 0.44784 1.03444 1.57485
207 1 7.22274 4.93481 7.37558 -0.219266 -0.549886 -0.426964
208 1 1.51883 3.896 6.00922 0.167451 0.175581 0.45129
209 1 6.62785 7.42823 1.4772 0.496332 -0.124655 0.203065
210 1 1.42256 5.28577 8.89501 0.824308 0.799508 0.72233
211 1 3.94147 2.30005 5.13901 -0.238365 -0.24005 0.0731189
212 1 4.01417 3.8744 1.8849 1.27897 1.35842 -0.25818
213 1 4.06108 2.70079 6.1079 -0.214886 -0.178062 -1.38193
214 1 0.734105 6.48377 0.318851 0.289981 -0.267976 1.78848
215 1 7.04158 7.28962 8.86312 0.416391 1.25208 -0.434932
216 1 3.67335 2.55694 8.78938 0.817432 -0.196949 0.779274
217 1 5.68123 1.04635 1.92305 0.17328 -0.694613 -0.0178549
218 1 0.261717 2.92837 8.37032 -0.659448 0.550883 0.524086
219 1 4.76744 2.25447 0.782797 0.225979 -0.216335 -0.00672415
220 1 8.7631 3.37058 8.25273 0.479882 0.693253 1.12181
221 1 6.61173 2.83119 3.59413 0.60967 0.841577 1.42389
222 1 5.12588 5.17843 6.78992 -0.38627 -0.245282 -0.254058
223 1 8.47419 5.30148 1.95165 -0.349563 0.203033 0.889052
224 1 5.66005 7.791 0.922663 -0.488183 0.666816 0.1791
225 1 2.88516 1.82113 4.02919 -0.586734 -1.14955 -0.365358
226 1 8.16903 7.42499 6.27962 0.564239 -0.654704 1.02595
227 1 3.03595 3.81187 2.57902 0.252552 0.970103 -0.496065
228 1 8.62888 8.29588 7.89169 0.65093 -0.728101 -0.406091
229 1 3.13296 7.36128 0.548397 -0.617867 -0.376812 0.655978
230 1 3.6664 0.907944 6.55241 0.961044 -0.0878352 -0.20939
231 1 3.5839 7.62587 7.20331 -0.744267 -0.255103 -1.2537
232 1 1.78984 8.26174 7.94777 -1.10463 -0.657531 0.0139121
233 1 7.77877 7.79576 8.30696 -0.51787 0.0814631 0.74319
234 1 5.3366 2.59655 9.31873 -0.12045 -1.60847 -1.48125
235 1 0.71704 5.39742 4.48502 0.840661 0.292432 1.18089
236 1 7.21265 5.97212 6.31134 0.967166 -0.930978 0.148016
237 1 7.70587 3.48473 6.9193 -0.367313 0.0939488 -0.209233
238 1 4.17124 1.83812 9.43647 0.889888 0.294349 1.28722
239 1 8.93192 4.02979 1.17908 0.0685057 -1.00663 -0.581026
240 1 4.6584 8.99821 4.8265 -1.09894 0.559733 -0.0273408
241 1 5.48195 5.86797 3.14603 -1.32253 -0.833294 1.08318
242 1 7.86225 3.27147 2.77666 0.139366 -0.493555 -0.184125
243 1 1.17972 0.897657 2.07045 0.639693 0.816144 -0.741561
244 1 7.96052 3.98439 7.79152 -0.0527375 0.334933 0.484963
245 1 7.16112 5.00758 2.9343 0.623591 0.619916 -0.573826
246 1 2.44068 7.0227 9.11635 -0.0118941 -0.597133 1.94489
247 1 1.3958 2.00416 1.57435 0.310657 -0.0438854 0.134119
248 1 9.25275 8.87385 8.58224 0.642574 -0.91287 -1.05472
249 1 1.35584 6.96226 4.49186 1.10378 -0.114731 -0.989433
250 1 2.20432 8.95592 2.58576 0.470431 -0.491431 1.40808
251 1 2.12706 7.31683 7.35468 -0.950502 -0.87435 -0.620068
252 1 3.50808 3.3743 3.40963 -1.06684 -0.137743 1.63653
253 1 0.794446 6.25563 6.05185 0.328829 -0.396278 -0.621029
254 1 5.50232 1.45179 4.03772 0.565809 0.573036 -0.382214
255 1 9.0649 8.26964 0.188861 -0.2775 -0.264138 -0.0140308
256 1 8.85893 7.5038 8.69529 1.3569 -0.312007 0.143465
257 1 4.99656 0.674504 4.58324 -0.162183 0.0404423 -0.338824
258 1 4.3432 1.57602 2.97585 1.50953 0.136736 1.07916
259 1 2.71878 5.4757 1.51994 0.0260557 0.542326 0.0938016
260 1 5.07421 8.55553 7.8391 0.321453 0.241062 -0.0830061
261 1 5.1165 1.60905 8.94179 1.26738 0.75472 0.974416
262 1 3.32964 4.3823 3.4389 -0.390311 -0.408977 0.232036
263 1 5.3221 4.02674 5.50168 0.0455462 0.245021 0.813592
264 1 5.96121 2.73155 2.20433 -0.829607 0.0159832 0.375709
265 1 7.37511 5.66547 3.78525 0.412524 -0.805148 0.0598187
266 1 8.51205 6.34321 2.35191 1.35081 -0.229604 0.0961339
267 1 3.32446 8.1769 9.33724 -0.449452 -0.328252 -0.218729
268 1 5.86591 3.23572 6.62839 0.396834 0.409571 -0.490295
269 1 8.28481 6.10543 1.31819 -0.634762 -0.119804 0.861167
270 1 7.90805 3.29011 5.92099 -1.02023 0.262134 -0.271869
271 1 2.83078 0.264058 3.31469 -0.51697 -0.283269 -0.486441
272 1 6.36516 4.08451 5.76265 0.605985 -0.72542 -0.179533
273 1 8.45222 6.13248 3.53227 0.17067 -0.226087 0.0790945
274 1 6.66969 3.35224 0.502088 0.523706 -0.562386 0.296742
275 1 2.91873 8.25808 7.76345 -1.10897 -0.278543 -0.846524
276 1 5.35029 7.29307 0.00998991 -0.173547 0.362817 -0.28271
277 1 6.06645 4.62501 4.84405 -0.0711124 0.159808 -0.262946
278 1 1.16449 4.90095 1.22498 0.490598 0.452363 -0.409518
279 1 9.34122 7.24867 0.232451 0.50538 0.117974 0.176412
280 1 5.64409 0.129687 7.84894 0.625559 -0.196912 1.41517
281 1 5.90616 6.75512 3.56234 0.419569 0.847632 0.202624
282 1 3.15818 6.60347 4.2536 -1.03567 0.581482 1.7602
283 1 8.97237 6.70584 6.18588 0.0183585 -1.05105 0.345622
284 1 3.8958 0.510265 8.46684 0.564507 -0.957058 0.135815
285 1 4.25265 4.53704 8.52176 0.481406 -0.7142 0.173982
286 1 2.68858 0.624347 7.14581 0.991465 -0.681077 0.312547
287 1 8.55991 3.49326 2.03317 -1.18963 0.490117 -0.120906
288 1 4.00237 9.36746 1.9105 -1.08315 1.08846 -0.140851
289 1 6.44723 4.3959 2.2408 -0.381321 -0.595604 -0.0242322
290 1 2.39842 5.0387 3.63498 1.34993 -0.00370303 -0.556987
291 1 1.51956 0.574794 7.02183 -0.0648537 -0.616972 -0.24745
292 1 1.96393 5.2314 4.83362 0.261946 -0.0603901 0.334369
293 1 3.28375 7.50964 4.72085 0.561954 0.167815 -0.198855
294 1 3.81717 6.39347 7.10842 -0.315224 1.34671 0.0367965
295 1 3.56111 5.95954 5.09506 1.35867 0.420744 0.848783
296 1 5.49046 3.415 4.65199 0.205018 -1.35661 1.02887
297 1 4.09367 3.5083 8.98084 -0.240573 -0.298207 -0.083402
298 1 7.93969 2.3059 0.587687 -1.02995 0.764174 0.776263
299 1 0.595172 8.03531 1.59409 -0.174163 0.190694 0.311073
300 1 6.3567 1.51663 1.16724 0.46533 -0.256508 -0.316401
301 1 0.808937 2.13823 7.96103 -0.263943 0.910419 -0.24754
302 1 6.46202 8.44143 6.16481 -1.89223 -0.31845 -0.13013
303 1 4.42324 4.4889 6.82749 -0.484693 0.236693 0.0193832
304 1 6.56574 1.23357 0.214459 -0.402501 -0.0172363 -0.0459846
305 1 1.46525 4.57175 0.236611 1.33656 -0.43052 0.579278
306 1 8.73595 0.233621 6.9092 0.847367 1.27155 -0.672961
307 1 4.64243 6.42284 1.71711 -0.481624 -0.30036 0.269513
308 1 6.05874 8.76834 3.77424 0.132391 1.4622 -0.525728
309 1 3.64436 4.95997 4.79112 0.715843 1.46303 0.644721
310 1 9.04456 2.16946 3.78138 0.230179 -0.214894 0.489968
311 1 5.67158 2.24634 8.32762 -1.26648 1.15754 0.0251266
312 1 4.13187 6.89252 2.4842 1.15839 0.199836 0.799657
313 1 9.06902 7.73401 1.14681 -1.01313 -0.582263 0.0466527
314 1 5.48823 4.6272 8.28663 -0.684255 0.689436 -0.34975
315 1 5.97441 5.82524 6.54783 -1.02488 0.190674 -0.501101
316 1 1.20913 8.51881 3.00885 1.09458 0.353736 -0.243503
317 1 3.85561 2.8041 0.503058 0.358765 -0.116102 0.575858
318 1 0.410793 2.53453 5.31421 -0.421381 1.23242 -0.310055
319 1 7.5676 8.27973 6.6963 -0.883076 0.381763 0.12457
320 1 8.16858 2.31105 2.23889 0.14566 -1.04209 0.0540021
321 1 4.69939 8.82479 5.95485 -0.0481084 0.71544 -0.0740165
322 1 0.39926 0.621512 7.02491 -0.786963 0.156995 -0.839047
323 1 3.3776 5.41087 3.20415 -0.261859 -0.428573 -0.63211
324 1 5.50731 1.53893 0.493074 0.419741 -0.326174 -0.789267
325 1 4.939 1.87359 4.95508 0.542356 -0.0151612 0.463787
326 1 7.71404 9.37786 7.29121 0.49406 0.0633348 -0.818596
327 1 0.848674 6.97543 8.7604 0.0115559 -0.82488 -1.52523
328 1 4.68073 5.32872 1.8737 0.0942677 0.026709 -0.931384
329 1 1.92522 3.52659 4.30826 1.06293 -0.319402 -0.426311
330 1 3.51645 2.686 4.25418 -0.637276 -1.5351 0.427435
331 1 4.51792 3.76956 6.09525 0.9347 -0.0278407 -0.337858
332 1 1.49491 4.1087 7.15144 -1.04719 -0.440341 -1.44182
333 1 6.50782 6.59291 0.985595 0.987258 -0.599785 -0.921759
334 1 3.57657 0.167859 7.53199 -0.0428066 0.2435 0.119075
335 1 3.68926 1.74676 0.876817 0.92383 0.263951 -0.283007
336 1 0.975687 0.48342 5.96547 0.571366 0.497004 0.358373
337 1 8.8083 3.60707 0.112134 0.697278 1.01469 -0.77313
338 1 6.02866 2.05073 3.16331 0.622428 1.02646 0.138666
339 1 8.32973 8.58209 8.90002 0.114869 0.402765 -0.369478
340 1 2.60792 4.87194 2.56942 0.356795 0.885918 -0.979768
341 1 1.39377 1.10305 0.232544 -0.893115 0.399841 -0.389333
342 1 3.64562 7.93885 8.39393 0.481087 0.102762 -1.2664
343 1 2.19241 3.238 2.72605 -0.394103 -0.571489 0.210802
344 1 2.99698 0.865035 4.68786 0.155706 0.555764 0.802977
345 1 6.89311 8.48824 4.28904 -0.00389912 0.592446 -0.144733
346 1 0.60219 5.75361 6.97462 0.733311 0.429747 -0.838461
347 1 9.09618 4.09877 7.44741 -0.324662 -0.666586 0.737331
348 1 5.15519 3.09107 7.54871 0.555867 -0.217324 -0.429092
349 1 4.03786 0.956495 1.79513 -0.489468 -0.033105 -0.753031
350 1 5.03353 3.62122 3.72165 0.278955 -0.298638 -0.133877
351 1 7.20896 9.09453 1.9995 0.239654 -0.290779 0.481007
352 1 4.98922 5.1499 9.06947 0.270108 0.41096 -0.249044
353 1 1.37105 1.14219 4.61243 0.384178 0.126583 -0.0172671
354 1 2.75478 0.657126 8.24074 -0.852449 0.406477 -0.392303
355 1 8.80161 3.56853 6.41356 0.533194 1.1422 -0.751771
356 1 0.437855 4.41253 0.624916 0.577618 -1.37108 -0.465738
357 1 5.68746 3.04154 1.17034 -1.87348 0.646845 0.141443
358 1 1.00178 8.785 8.47237 0.491185 -0.763662 -0.990727
359 1 3.25175 3.4822 1.12486 0.0369965 0.954624 0.922202
360 1 6.01442 3.13701 5.58249 0.0884044 -0.24597 1.68422
361 1 3.54075 1.831 2.3474 -0.445616 -0.880542 0.741009
362 1 6.58447 3.36264 1.62324 -0.458056 -1.23052 -0.616265
363 1 8.17432 7.27246 2.02045 0.168447 -0.0665637 -0.15499
364 1 4.572 1.29049 8.04392 -0.724518 -0.969372 -0.5221
365 1 1.10696 8.92793 1.77883 -0.763075 0.0101145 -1.28231
366 1 6.68302 7.97339 5.19034 0.63978 -0.748129 0.318134
367 1 7.98511 0.977717 4.76112 -1.25705 0.509759 1.05394
368 1 2.24387 7.21247 1.40567 -0.810246 0.286943 0.805208
369 1 7.79378 2.41951 5.24891 0.652117 0.215993 0.264359
370 1 4.78308 1.31888 1.2467 -0.972669 -1.4206 -0.100616
371 1 8.27008 0.859837 2.73626 -0.740907 0.350444 -0.0271665
372 1 5.06148 9.36521 0.266112 -0.737672 -0.481309 -0.650829
373 1 7.91378 0.906544 6.74326 0.10891 0.399328 1.4193
374 1 6.85718 6.84089 4.028 -0.398587 -1.06617 0.0740955
375 1 5.19592 5.83717 5.78934 0.29463 -0.123851 0.530753
376 1 2.65886 1.67065 7.93123 -0.371992 0.222975 -1.36763
377 1 2.75439 5.31768 8.137 -0.571563 -0.131757 0.713102
378 1 8.17805 0.06157 2.10524 0.199111 0.414037 0.187723
379 1 9.07357 3.45462 5.39387 0.748594 0.474289 0.3934
380 1 8.65962 7.24403 2.96307 0.926865 0.514669 0.440621
381 1 1.64588 5.34983 6.92957 -0.439308 -0.19956 -0.266764
382 1 6.68023 2.05445 2.10096 -0.582114 -1.50984 -0.783988
383 1 6.95772 2.50762 1.07286 -0.90969 0.920569 1.17742
384 1 7.09459 8.31666 1.17066 0.779782 0.613858 -0.525336
385 1 4.94834 8.95935 2.01124 -0.520606 -1.18502 0.422088
386 1 0.348827 2.22879 1.01247 -0.416685 0.656435 -0.198207
387 1 7.47078 1.70649 2.69809 0.30266 -0.735237 0.506751
388 1 4.78392 5.95367 8.33855 1.62493 0.108619 -0.384028
389 1 7.4366 4.29517 6.19333 0.389738 -0.217375 0.287736
390 1 8.37155 4.56835 4.72401 0.026702 -0.368483 0.121744
391 1 4.63601 0.943149 0.297448 -0.959878 -0.742192 -0.195704
392 1 2.28348 0.936326 3.97969 -1.34509 -0.267385 0.031705
393 1 4.64475 0.1324 7.68361 0.0711821 -0.848914 -0.0825998
394 1 9.26868 4.48289 6.24964 0.654799 0.65899 -0.309074
395 1 8.04988 5.1989 8.84493 0.31888 0.327999 0.22737
396 1 2.99275 1.80104 5.15454 0.0855096 -0.273713 0.369448
397 1 7.02313 3.3745 5.168 -0.102264 -0.199454 0.483668
398 1 7.52744 6.88727 1.29757 -0.38452 -0.460161 0.765541
399 1 2.13449 1.57348 2.29782 0.105185 -0.116368 -0.496071
400 1 6.84725 8.13188 2.27381 0.328009 -0.380803 0.137685
401 1 3.65175 1.79431 6.08251 0.277575 0.030381 -0.118212
402 1 7.44846 0.241539 5.38333 0.0331946 0.747326 0.158616
403 1 0.694826 2.94713 1.66423 1.02281 -0.166577 -0.537707
404 1 5.24649 6.88878 2.56827 -0.910202 -0.183938 0.787303
405 1 4.33446 1.64724 7.01323 0.540075 0.568232 -0.0347226
406 1 2.07214 4.18479 5.08979 -0.76402 -0.00736166 0.447061
407 1 5.29551 8.38252 0.140883 -0.319102 -0.4598 0.0601909
408 1 4.73207 2.72453 8.40281 -0.250939 0.418698 -0.038252
409 1 2.9129 1.32239 3.06906 1.23625 -0.563241 -0.215106
410 1 0.48631 3.7782 6.80602 1.12218 0.199642 -0.458461
411 1 6.52211 9.06328 5.26206 -0.218963 -0.980616 -0.409579
412 1 5.74527 0.435768 3.74882 0.774692 -0.797943 -0.474973
413 1 2.13725 7.77748 0.521099 0.233714 0.977763 0.0652386
414 1 1.38049 7.40854 3.43926 -0.152731 0.690591 -0.544813
415 1 1.42927 3.77247 1.24583 -1.12132 -1.41928 -0.361514
416 1 0.216987 8.75835 3.45176 0.0372907 0.254162 0.537563
417 1 1.40045 7.94497 4.92238 -0.190107 0.384387 0.988806
418 1 3.22874 0.58739 1.07237 -0.267155 -1.13738 1.30045
419 1 7.54789 2.50661 3.33718 0.853454 -0.365932 -1.02759
420 1 0.0824582 1.7767 4.60295 -0.580907 0.436032 0.74038
421 1 7.97559 8.3844 2.11745 -0.56782 0.596628 1.1358
422 1 3.10619 2.71377 5.68702 -0.300025 0.632027 1.08518
423 1 8.20844 7.69485 0.0529938 -0.137965 -0.336802 1.09947
424 1 7.55494 8.32897 5.64735 -1.24169 -0.676153 0.688247
425 1 1.63885 1.91654 5.32069 -1.10178 -1.22346 -0.512644
426 1 9.02191 0.692491 8.47586 -0.193298 0.156087 0.111603
427 1 6.41532 5.89268 5.51175 1.44827 0.667621 -0.174503
428 1 3.25804 2.92746 7.0143 0.305018 -0.384582 -0.330959
429 1 4.76727 3.28483 0.417288 -0.176627 0.112891 1.78331
430 1 2.45147 8.81586 6.14144 -0.573626 1.32973 -0.517278
431 1 9.11813 7.28502 7.60292 -1.19025 -1.87424 0.514743
432 1 6.31029 0.797119 7.14242 -0.0653459 0.0660915 1.00425
433 1 3.87585 2.1932 7.81861 -0.261071 1.41614 0.44299
434 1 4.87894 4.3862 2.38535 0.564746 1.25441 -0.015383
435 1 1.94004 0.661889 2.68702 0.557452 0.523227 0.134532
436 1 2.03964 3.54751 9.06952 0.527097 0.198724 -0.183802
437 1 8.21045 5.01285 7.83865 -0.0935831 0.189467 -0.192938
438 1 1.57675 9.08972 0.101206 1.22288 0.363445 -0.910566
439 1 5.07862 6.17831 4.19716 1.09685 0.139208 0.623317
440 1 0.481863 4.37923 2.78287 0.175385 0.359801 0.458239
441 1 9.23737 0.889712 2.10951 0.488604 -0.313533 0.0091326
442 1 4.84161 6.82028 0.84392 -0.0570277 -0.565871 0.178002
443 1 3.85194 6.81567 8.06545 0.878115 -0.0875021 0.623733
444 1 7.82831 6.548 4.27767 0.607148 -0.092751 -0.14937
445 1 4.96965 0.483314 8.62111 1.62762 -1.22849 -0.203486
446 1 7.42103 5.85566 2.30047 0.595333 -0.321488 -0.222977
447 1 1.01159 7.45605 0.543089 0.481721 -0.77157 -0.72628
448 1 4.42628 7.64472 7.87456 -0.519028 -0.683991 0.301876
449 1 2.25868 1.42623 8.83251 -0.551724 -0.544894 0.0246217
450 1 2.13443 9.14361 7.16069 -1.74285 -0.259916 0.603124
451 1 6.91291 0.693681 8.74102 0.763528 -1.17589 -0.63811
452 1 5.6291 6.69542 8.41428 -0.563373 1.22335 -1.25701
453 1 5.34922 7.75686 8.46171 0.835323 0.297643 0.265066
454 1 5.60386 6.49206 5.116 -0.975461 0.41095 0.122144
455 1 4.12607 5.49399 6.72706 0.97603 -1.12127 0.124391
456 1 1.01623 6.31868 2.31305 -0.228186 0.294201 0.397139
457 1 4.73115 4.22636 0.0569211 -0.724201 -0.185497 1.08922
458 1 8.49453 7.38838 4.51589 -0.466754 -0.713962 -1.37094
459 1 2.83107 6.94965 2.25451 0.212724 0.522483 -0.193012
460 1 8.56541 2.54327 8.89589 -0.325937 0.0784946 0.858816
461 1 9.01511 4.85556 3.27274 -0.329154 -0.21996 0.837285
462 1 0.928601 6.43467 3.46623 -1.07326 -0.26633 0.904415
463 1 2.14371 0.463771 9.08952 0.381967 -1.11597 0.217309
464 1 9.1049 6.09681 0.676652 -0.0288361 -0.477443 0.00648572
465 1 1.60777 8.10331 2.14707 1.48676 0.569788 1.03601
466 1 8.00263 7.86929 1.14891 -0.187026 0.524457 1.13128
467 1 5.38218 1.26038 2.96051 0.246994 0.484161 -0.607441
468 1 6.67126 9.0153 2.93314 -0.609566 -0.243377 0.141434
469 1 2.37176 2.14604 1.20462 0.149855 -0.414314 1.03719
470 1 6.96781 5.39116 4.83759 0.841924 1.04346 -0.627188
471 1 2.50014 8.71651 0.295029 -0.052812 0.328077 -1.01126
472 1 2.26196 7.05344 6.21337 0.0680426 0.165406 1.07089
473 1 8.9409 1.20867 6.78846 0.352602 -0.499942 -0.0365975
474 1 6.65035 1.75512 8.58236 -0.0669525 1.15286 -1.86188
475 1 4.56606 8.88058 8.62097 1.2509 -0.370285 -0.568134
476 1 2.8871 5.46138 4.39755 0.197618 -1.48828 0.256897
477 1 8.25059 6.86909 8.02232 -1.13338 -0.285666 -0.579962
478 1 5.66149 9.17185 4.64588 0.105683 -0.28828 -0.146783
479 1 7.41718 0.798332 2.08767 -0.394802 0.00585751 0.385437
480 1 6.02226 6.92861 6.09357 0.893445 1.0307 -0.907215
481 1 2.74015 4.43082 4.32383 -0.850443 -0.358911 -0.192101
482 1 4.55856 6.31227 5.04974 -1.15718 0.958488 0.172711
483 1 0.805657 5.01558 3.5078 0.184947 -0.0506069 -0.0547434
484 1 0.261383 3.84002 9.03644 -0.486003 -0.473346 0.241764
485 1 6.60287 5.76804 7.34429 0.897726 0.0649784 1.09988
486 1 1.64409 4.6224 2.93263 1.21746 0.593231 0.36099
487 1 0.515853 6.37842 4.48405 -0.61051 1.21583 0.646809
488 1 6.72917 2.42116 5.57562 -0.970509 -0.831167 -0.479923
489 1 6.48121 8.60183 0.4394 -0.142501 -0.153497 0.0323357
490 1 5.56166 5.84873 2.08285 -0.223829 0.11118 -0.411546
491 1 4.73853 5.2332 2.92393 0.0166177 -0.148159 0.266667
492 1 1.62275 8.94347 5.354 -0.183959 0.843032 -0.419675
493 1 7.92868 4.4794 0.44287 0.315159 0.214436 -0.434436
494 1 4.24846 4.02129 3.10053 -0.0435952 0.266991 1.55459
495 1 3.12578 8.28291 1.06859 -0.281698 0.918222 0.556172
496 1 2.50933 0.107458 5.32166 0.834677 -0.185158 0.653981
497 1 6.38168 7.67087 6.90992 -0.328875 0.85958 0.363448
498 1 2.56646 1.15235 0.494525 -0.738222 -0.981224 -0.794189
499 1 3.72045 2.986 2.35218 0.209791 -0.881076 0.603711
500 1 6.65166 6.32994 8.16675 -0.627316 1.07592 -0.112732
501 1 5.96075 4.28416 3.90304 -0.445713 -1.12737 -0.550941
502 1 7.94545 3.95771 3.9517 0.806759 -0.189553 -0.211054
503 1 3.62244 1.1729 7.63734 -0.0284232 0.629664 -1.05093
504 1 2.91137 0.552185 2.24649 -0.065367 0.00889584 -0.354391
505 1 7.84056 3.40346 0.433098 -0.221995 -0.655949 0.219252
506 1 5.55508 5.74371 7.6806 0.336134 0.357361 0.480311
507 1 5.29739 7.71802 7.35277 1.01485 -0.98399 -0.297201
508 1 0.851127 8.11381 3.94263 0.732329 1.12128 0.991932
509 1 3.40736 2.52991 1.43275 -0.475329 0.526589 0.0354345
510 1 5.60453 4.8278 0.537311 0.568541 -0.246823 -0.199174
511 1 6.27498 1.89115 7.54991 -0.158162 -0.278162 -0.378276
512 1 1.91236 6.29932 1.76709 -0.293486 0.218809 -0.0724624
513 1 4.66566 7.44082 1.65763 1.46466 0.110526 -0.9926
514 1 8.11433 5.37722 2.92355 0.665963 -0.19043 -0.151591