ITEM: TIMESTEP
360
ITEM: NUMBER OF ATOMS
1000
ITEM: BOX BOUNDS pp pp pp
0.0000000000000000e+00 9.4000000000000004e+00
0.0000000000000000e+00 9.4000000000000004e+00
0.0000000000000000e+00 9.4000000000000004e+00
ITEM: ATOMS id type x y z vx vy vz
1 1 4.69376 0.274894 1.26397 -0.784449 0.700725 0.80699
2 1 7.86223 2.99248 7.8828 0.302979 -0.585031 2.00198
3 1 0.137606 3.18584 3.68912 -0.0145502 0.178452 -0.386895
4 1 0.585295 7.93733 6.80056 1.85608 0.64469 -1.20766
5 1 5.49925 2.12843 5.83419 0.403221 0.514234 0.10829
6 1 7.0475 7.36668 5.89247 -1.64917 -0.754534 -1.03913
7 1 1.12916 8.39181 0.863139 -0.915273 0.0270775 0.438917
8 1 2.18317 2.26404 6.29247 1.57608 0.451557 1.81698
9 1 1.38814 2.64925 4.75119 -0.582872 -0.228142 0.333206
10 1 2.90806 9.14995 1.58438 0.653242 -0.924974 0.0496944
11 1 8.44989 6.94133 0.675824 0.441678 0.416364 -0.104102
12 1 7.07537 2.90223 2.66724 1.03157 1.14191 1.0688
13 1 8.15583 1.7311 6.22661 0.927291 1.23194 -0.0485546
14 1 3.56201 6.38704 1.49347 -0.261346 1.21528 -0.772592
15 1 7.75088 3.02452 1.54437 -0.0124938 0.816799 0.428037
16 1 1.26023 3.08889 8.48438 -0.211775 -0.0504613 -0.343226
17 1 8.20324 4.41953 6.84919 -0.969953 -1.08926 -0.526378
18 1 0.220252 3.47598 2.69143 0.491577 -0.211069 0.0774754
19 1 6.23149 2.8902 9.05118 0.351133 0.717911 1.51468
20 1 4.21781 3.54098 7.08997 -1.08632 -0.975536 -0.0190672
21 1 1.70976 5.08705 5.66914 -0.596982 -0.684311 -0.359664
22 1 2.94312 3.44758 4.79842 0.254387 0.885853 -0.434946
23 1 5.15513 3.67026 8.73231 -0.571291 -1.46221 -0.210843
24 1 2.35737 4.00652 8.05289 1.02637 -0.713632 -0.561266
25 1 6.35619 2.81529 7.53659 -0.26147 -0.617782 -0.107072
26 1 2.10083 3.16607 5.44624 -0.837727 -0.753672 0.272837
27 1 8.40017 0.829881 7.72679 -0.448439 -0.843416 -0.758783
28 1 4.4876 6.24712 3.17841 -0.758557 0.32606 -1.58596
29 1 3.02419 0.184119 9.28645 0.866854 0.350734 0.835548
30 1 7.48948 2.69883 4.39171 0.403315 1.07949 0.54422
31 1 8.69862 2.89116 1.20243 0.346469 -0.468819 0.107306
32 1 4.31975 0.442732 5.78047 0.287867 -1.94482 0.365745
33 1 1.8991 7.31988 8.36241 -0.267662 -0.131904 -0.229657
34 1 3.65066 7.41303 1.48012 -0.196878 -0.495004 -1.06837
35 1 9.1927 0.568234 6.03945 -0.330616 0.0431572 0.58153
36 1 6.496 6.32588 1.91269 -0.995518 -0.630838 0.148986
37 1 8.46045 1.51295 9.31171 0.797946 0.0559855 -0.816119
38 1 1.20501 1.53455 3.14215 0.830206 0.357196 0.655345
39 1 0.441453 0.976726 4.39874 -0.0204647 -0.416954 0.254352
40 1 2.23158 4.14138 0.518506 -0.502496 1.39435 -0.158058
41 1 6.06375 0.0462854 6.2016 -0.169855 0.249972 -0.263256
42 1 1.23596 2.02053 8.80933 -1.13996 -0.68261 -1.43707
43 1 1.91726 3.05027 1.6676 0.31803 -0.286045 -0.0615419
44 1 7.17821 1.35224 5.74589 -0.0132726 -0.852032 -0.977336
45 1 6.28869 2.36379 6.60161 -0.264651 0.00924457 0.218151
46 1 7.8503 6.51405 3.22871 -0.168478 -0.388603 -0.712239
47 1 6.06014 5.69704 0.277427 0.712624 0.0898003 -0.0429849
48 1 7.76035 7.42569 3.74946 -1.67724 -0.216825 -1.20887
49 1 3.52756 4.65382 6.66909 -0.123354 0.141785 0.731868
50 1 8.59356 8.05986 3.64716 0.00494936 -0.221953 0.461524
51 1 6.2861 7.24109 2.54589 -0.462972 -0.0419036 -0.835919
52 1 1.07957 3.62724 0.10035 0.798571 0.574606 0.771322
53 1 5.30195 2.98659 3.20533 0.872893 -0.474387 -0.28234
54 1 0.0942036 6.08178 5.3614 -1.87173 -0.223458 0.78046
55 1 8.87692 5.22085 5.33574 -0.445077 -0.532749 0.27843
56 1 0.156279 4.38094 5.07217 -1.0845 0.913109 0.670263
57 1 0.155098 8.84541 6.43896 0.181382 -1.55793 0.150055
58 1 5.11489 4.02673 1.18557 0.0473973 0.435965 -1.42761
59 1 0.396666 7.55598 4.68937 1.17621 -0.255575 -0.0607873
60 1 0.375177 5.41354 0.450155 0.477379 -0.346374 0.767506
61 1 5.58458 9.0401 8.65257 0.758083 0.664561 0.212107
62 1 0.483457 0.293802 1.49904 0.41374 0.551099 0.212723
63 1 7.36601 6.90289 7.50737 1.01692 0.654386 1.23979
64 1 3.36176 5.23775 8.96525 -1.07305 -0.243539 -1.48252
65 1 2.1868 2.48661 8.84046 -0.510856 0.48905 0.157698
66 1 6.36874 4.86942 9.07401 0.684577 0.156321 -0.224733
67 1 6.40949 5.34863 2.30945 0.133893 0.180558 0.181034
68 1 4.13078 5.0502 0.304801 -0.498107 -0.289844 0.381082
69 1 2.47149 2.89685 0.55707 0.667208 -0.251368 -0.574358
70 1 0.220781 1.57286 3.33622 0.366584 -0.280178 0.610845
71 1 7.37415 5.95249 1.30603 -0.529012 0.227026 1.17629
72 1 7.15564 4.99349 1.63361 0.441672 -0.019721 -0.0260345
73 1 2.0464 8.71307 1.22552 -0.875207 -0.364243 0.467594
74 1 4.78092 5.1603 7.59237 -0.815688 -0.776838 -0.247385
75 1 8.31169 9.20207 5.13983 -0.773104 1.24181 0.0460986
76 1 6.78787 7.84122 3.33037 0.417967 -0.731211 0.125996
77 1 4.82882 4.04288 7.79891 0.400831 0.622391 -0.185088
78 1 2.37671 4.86186 9.08933 0.285495 -0.245147 0.0221799
79 1 7.82479 7.79091 2.78911 0.506447 0.096021 0.748267
80 1 0.066389 6.52856 2.92533 0.645164 0.00854075 0.693046
81 1 5.77334 0.295728 2.63752 1.3879 -0.824398 0.97554
82 1 9.23075 3.0276 7.41072 -0.216435 -1.14369 1.03861
83 1 3.50771 8.57115 4.49329 0.756779 -0.190203 -0.530314
84 1 0.809711 4.88442 7.30842 -0.763827 0.211071 0.599961
85 1 2.25617 2.13955 3.1815 0.575577 0.34048 -0.319475
86 1 3.35405 4.16041 8.5252 -0.255336 0.897387 -2.16577
87 1 9.08022 4.38119 2.25777 0.201575 1.25458 -0.0172332
88 1 0.659763 1.82841 2.14773 -0.499928 -0.149377 0.690257
89 1 4.31455 2.22944 1.75531 -0.370789 -0.289686 -0.615306
90 1 7.24942 6.98272 2.32776 -0.643436 -0.606516 0.636634
91 1 4.30183 2.64186 3.44428 0.027211 0.2623 -0.365826
92 1 0.685361 1.17296 8.59981 0.757259 -0.710952 0.754831
93 1 3.86738 6.04557 2.38744 0.227609 0.295328 -0.00209153
94 1 4.99199 8.60244 0.92625 -0.0875711 -0.337164 0.644469
95 1 6.26307 5.99191 4.07746 -0.656381 -0.0666851 0.32059
96 1 4.03723 8.68751 7.59344 0.773653 0.997789 -0.50036
97 1 5.62377 4.60663 2.85667 -0.193205 0.607169 0.216802
98 1 8.43163 8.78503 2.92336 0.913147 -0.509421 -1.84719
99 1 1.06772 0.0813546 2.85369 0.698365 0.246314 -0.302903
100 1 6.64304 0.0348291 7.88073 -0.13137 0.814389 -0.515045
101 1 8.76484 5.28687 0.746758 -0.435692 -0.209806 -0.0652983
102 1 7.73209 6.38457 8.57487 -0.567871 0.588272 -0.623306
103 1 4.84753 0.553989 2.25617 -0.720897 0.547666 0.177775
104 1 8.75815 9.39265 1.32425 0.578608 0.419073 0.302418
105 1 7.42784 8.74441 8.16637 -0.265581 -0.99218 0.702506
106 1 3.87911 3.08644 7.95052 0.4674 -0.888292 0.950184
107 1 1.43141 7.15935 1.64654 -1.11438 0.548005 0.01586
108 1 9.07554 5.38737 8.98115 0.361501 -0.435596 1.11451
109 1 5.4537 1.76571 6.80836 1.22903 0.624541 0.336428
110 1 2.71538 7.96108 6.81405 -0.357096 -0.785285 -0.384756
111 1 2.46022 0.23729 0.793587 0.737635 0.325271 0.16518
112 1 1.3984 6.00754 5.21081 0.699298 -0.361498 0.0687011
113 1 9.28474 9.01721 7.47595 0.756901 -0.753756 0.457677
114 1 2.1554 6.36197 4.52569 -0.237155 -0.985288 -0.107976
115 1 5.92575 8.61443 6.91841 -0.390878 0.509101 -0.848122
116 1 2.38785 7.90818 2.97114 -0.29675 -0.582471 -0.450657
117 1 7.24577 8.19511 9.2605 -0.119559 -0.700782 0.105676
118 1 0.415992 0.254019 8.13821 -0.247355 -0.917859 0.358899
119 1 7.52054 0.0590804 2.98272 1.30338 -0.134728 1.7426
120 1 7.5429 6.62882 0.263366 0.312948 -0.0352796 1.10295
121 1 5.93443 5.75664 8.66628 0.97528 -0.0437692 0.38634
122 1 0.141228 8.67854 1.07335 0.582148 0.424652 -0.273167
123 1 1.2786 2.43888 6.87896 0.68302 -0.242082 -0.461278
124 1 3.43705 6.68978 3.22769 -0.0678064 -0.827185 0.015636
125 1 0.652207 2.2442 4.30664 -0.00113295 0.32032 -0.103069
126 1 0.353328 6.86254 6.8766 0.252309 -0.352299 0.25954
127 1 1.7821 0.271067 4.65515 0.357098 -1.09314 -0.939009
128 1 4.8849 2.95831 5.40162 -0.454922 -1.29656 -0.561884
129 1 4.83036 5.01412 1.02638 0.516893 -1.08578 -0.996139
130 1 8.19977 0.679096 5.74373 0.478959 -0.104068 0.741971
131 1 8.94074 0.686606 4.99288 1.25122 -0.359902 0.332472
132 1 6.77437 3.5362 4.20714 -0.10627 -0.703271 -0.524226
133 1 3.75165 3.96091 4.36467 -0.857036 -0.739386 0.0586853
134 1 6.08595 2.3719 0.588085 0.143676 -0.46555 0.168915
135 1 8.47367 1.50029 5.18596 -0.145207 -0.910754 -0.157429
136 1 4.01313 6.00123 4.13039 -0.533716 -0.315558 -0.310311
137 1 2.67812 2.71046 7.69693 0.0855655 0.339579 0.403898
138 1 1.50754 7.06334 5.47831 -0.313968 -0.171926 0.314155
139 1 0.811664 0.158603 4.95808 -0.690181 -0.732477 0.104098
140 1 1.09422 3.79645 3.42284 -0.249432 -0.253826 -0.91151
141 1 2.48373 3.32597 6.50163 0.489002 -0.522141 -0.78764
142 1 3.46965 3.67417 6.38143 -0.0992445 0.058178 -0.301333
143 1 3.04005 6.16497 8.58841 0.854189 0.21943 0.424421
144 1 9.01518 8.43672 1.99744 0.971045 -1.33277 0.10734
145 1 0.453759 6.49068 7.92559 -0.671856 1.12497 0.568097
146 1 5.89005 9.08232 1.1377 -0.46981 0.332525 0.0621189
147 1 1.4099 7.10619 6.55648 -0.0295497 0.534224 -0.278973
148 1 9.06731 4.46396 8.44815 -0.505723 -0.879208 0.213092
149 1 1.95225 6.84767 2.85083 0.267048 -0.101675 -1.20814
150 1 1.07008 7.38985 7.62657 -0.16226 -0.264825 -0.7091
151 1 3.88061 8.25533 5.46446 -0.200896 0.625973 0.294742
152 1 4.43206 9.081 2.77226 -0.135171 -0.6124 -0.118626
153 1 8.82846 2.57969 3.02527 -0.442868 0.0777095 -1.42641
154 1 5.88563 6.72087 7.24588 0.343627 -1.68777 -1.46339
155 1 5.13525 1.15376 5.52109 -1.45258 0.636906 0.359459
156 1 3.76756 0.558901 2.80463 -0.476046 -0.0788708 0.0871392
157 1 8.54357 9.33935 8.21377 0.0445426 0.217026 0.166128
158 1 0.494039 8.53982 4.79148 -0.0880914 -0.288878 -0.243218
159 1 6.19221 7.76394 4.20425 0.0230888 0.589271 -0.427648
160 1 9.0704 1.16798 0.892924 -0.0243476 -1.03161 -0.2169
161 1 2.17695 5.26989 0.788631 -0.0198095 0.887232 0.223209
162 1 7.22783 4.58053 8.43254 0.511448 0.523003 -0.051324
163 1 6.50809 5.25499 8.07634 0.442377 -0.613373 -0.563138
164 1 1.83036 5.77335 2.80574 0.330629 -0.800666 0.461549
165 1 3.35315 1.57942 8.73768 0.14882 -0.00693813 1.01962
166 1 8.22936 4.99893 3.72841 -0.111427 1.15583 -0.0943315
167 1 0.507637 8.8335 0.0787416 1.11468 -1.44837 -0.368058
168 1 6.94116 4.98302 0.604279 0.0362264 0.22712 -0.659883
169 1 0.219721 5.29472 8.09524 0.704279 -1.30427 0.444526
170 1 2.47908 7.313 3.84478 0.642096 0.681097 -0.439919
171 1 1.0983 5.29346 2.2542 -0.331132 0.36065 -0.723738
172 1 6.45465 6.49515 9.19227 0.0511194 0.229786 0.301832
173 1 6.06226 8.78333 2.18604 0.725934 -0.0364617 -0.234418
174 1 1.83342 3.19595 7.25776 -0.7317 -0.00927856 0.297132
175 1 4.04954 0.112429 0.228131 0.0331996 0.581973 -0.507932
176 1 3.45026 7.59112 3.83667 0.613001 0.385464 -0.67361
177 1 0.967428 0.328881 9.10996 -0.365457 -0.084903 -0.360848
178 1 4.15687 6.20875 6.06102 0.384784 -0.189663 0.674899
179 1 7.25488 4.15388 0.0401664 0.631695 -0.716507 0.414679
180 1 4.48284 7.24997 6.78522 0.42301 0.778407 -0.739185
181 1 7.80314 5.623 0.456615 -0.0924572 0.541171 -0.0808486
182 1 5.63088 7.87408 2.07713 -0.433268 -0.452128 -0.0515784
183 1 4.72437 6.97633 8.65545 0.573588 0.305353 0.572357
184 1 8.05371 6.55224 6.73682 0.276273 0.027461 0.391622
185 1 8.01863 1.81213 4.26713 0.393118 -0.0753369 0.113794
186 1 7.47998 7.21288 4.9042 -1.2981 -0.521445 0.134473
187 1 8.08006 4.438 1.63213 -0.777754 -0.434036 0.0673551
188 1 9.30203 6.73515 8.78257 0.113973 1.09806 0.0665223
189 1 8.13342 3.52524 4.88925 0.62997 -0.27486 0.379425
190 1 8.89419 3.88065 3.24149 1.19247 1.60091 0.463619
191 1 6.97462 2.71488 8.30537 -0.649941 0.511935 0.975251
192 1 8.19726 5.48473 6.85705 -0.540607 0.848082 -0.147881
193 1 3.96489 7.19244 5.48952 -0.655962 -0.554546 -0.297195
194 1 5.23171 1.16335 7.61712 0.667093 -0.490904 0.838305
195 1 0.442475 8.21429 7.85602 0.149008 -0.0850267 -0.407354
196 1 5.62882 6.91585 1.62708 -0.339813 0.601906 -0.181011
197 1 3.91163 3.40196 5.27695 0.44867 0.393701 -0.551054
198 1 1.00827 4.62192 6.33922 0.421616 0.500598 0.188579
199 1 8.38353 5.88971 5.95205 -0.449123 -0.244839 0.548407
200 1 4.83784 7.78299 5.18029 0.78049 0.305056 -0.541616
201 1 0.208231 3.21737 0.810117 1.06672 1.18257 0.875631
202 1 9.10415 3.70542 4.4383 -1.66175 -0.651497 -0.217311
203 1 9.21842 5.64297 6.33081 0.0983194 -0.183608 -0.244202
204 1 7.15196 1.72492 4.75432 -0.605748 0.288172 1.23614
205 1 1.4033 8.79231 6.45374 -0.899183 -0.140088 -0.866525
206 1 4.7856 9.10744 3.87687 0.774905 -0.331507 -0.308587
207 1 7.28697 4.73822 7.30363 0.778805 -0.110201 0.433111
208 1 1.64447 3.86267 6.07654 -1.60527 -0.0711975 -0.848793
209 1 6.52238 7.4279 1.42819 0.41225 -0.973408 0.174409
210 1 1.41908 5.23414 8.82959 -0.448122 0.776681 -1.05576
211 1 3.91696 2.23792 5.30239 0.405316 -0.343673 -0.673049
212 1 3.83469 4.02614 1.88713 -0.955131 -0.313868 -0.257178
213 1 4.12241 2.8503 6.16726 -0.176477 0.656184 0.23847
214 1 0.660419 6.47394 0.238529 0.313199 0.852328 0.10967
215 1 7.09377 7.27768 8.8127 0.553364 0.925664 -0.150222
216 1 3.70034 2.69697 8.89712 -0.200869 -0.290897 1.16979
217 1 5.71498 1.05291 1.90275 0.89463 0.70659 -0.0453102
218 1 0.2372 2.91937 8.4547 -0.863338 -0.258771 -1.27028
219 1 4.82838 2.39035 0.883865 -0.771402 0.569541 0.924244
220 1 8.72732 3.44249 8.31539 -0.600017 -0.129838 0.714733
221 1 6.60199 2.63953 3.59248 -0.80631 0.253643 0.373722
222 1 5.27069 5.16833 6.73896 0.973737 -0.484107 1.45707
223 1 8.55364 5.44423 1.90585 -0.78589 -1.49188 -0.00988241
224 1 5.80379 7.87587 0.904756 -0.165001 0.635832 -0.00970999
225 1 2.825 1.82407 4.03327 -0.303795 0.625094 0.177218
226 1 8.14353 7.40257 5.98852 0.739153 -0.131546 -0.358732
227 1 2.91649 3.97916 2.60646 -0.693363 -0.446641 -0.515246
228 1 8.47726 8.3485 7.73716 0.867121 0.168751 1.20659
229 1 3.15694 7.5635 0.320964 1.16862 -0.713561 -0.387372
230 1 3.36257 0.695693 6.71598 0.966542 0.1603 0.0761372
231 1 3.57917 7.67425 7.33262 -0.218231 1.88702 -0.523798
232 1 1.79853 8.31568 8.01643 0.43161 0.183037 0.0331168
233 1 7.8728 7.66795 8.26531 0.600748 0.936779 -0.423248
234 1 5.32833 2.67389 9.36379 -0.207137 0.146671 0.462299
235 1 0.908575 5.2244 4.53907 -0.0357417 0.948583 -0.458275
236 1 7.35182 5.86522 6.324 -0.955243 0.331184 0.173937
237 1 7.62996 3.64262 7.00734 0.680772 0.781318 0.294908
238 1 4.1576 2.01886 0.174168 -0.591589 0.074631 0.613696
239 1 9.00879 4.0556 1.15541 -0.0183802 -0.669981 -0.748136
240 1 4.5465 8.82165 4.89471 0.430956 -0.779466 0.947394
241 1 5.53557 6.05207 3.13146 -0.144209 1.44116 -0.375987
242 1 7.99494 3.33115 3.14544 0.179302 0.372978 -0.367743
243 1 1.15381 0.857792 2.17573 1.20335 -0.252197 0.110168
244 1 8.05267 4.06233 7.87526 0.230808 -0.392323 0.580112
245 1 7.18363 4.90524 2.81992 0.134983 0.0674891 0.424576
246 1 2.52193 6.92531 9.14819 -0.242026 0.739753 0.343212
247 1 1.37676 2.0771 1.51585 0.220358 0.794989 -1.36783
248 1 9.29681 8.75505 8.55784 0.310709 -0.614603 -0.0989042
249 1 1.35773 7.16187 4.44911 -2.0997 -0.518699 -0.363034
250 1 2.30046 8.93033 2.58372 -0.311989 -0.490909 0.118792
251 1 2.1405 7.25872 7.44877 -0.472064 -0.157157 -0.438358
252 1 3.5341 3.29482 3.41281 0.775287 -0.516881 0.3345
253 1 0.794823 6.31982 6.15517 0.0872585 -0.0892313 0.281436
254 1 5.29238 1.40283 4.03577 -0.537874 -0.495197 -1.29323
255 1 8.92779 8.14213 0.29967 -0.0288696 -0.44591 -0.773392
256 1 8.89766 7.68605 8.4835 0.779042 0.611697 0.185755
257 1 4.78506 0.447462 4.64127 0.998245 -0.465451 0.543651
258 1 4.11303 1.61431 2.91597 -0.389969 0.732204 0.0249204
259 1 2.76122 5.83697 1.3939 -0.478224 -0.323082 -0.236586
260 1 4.99974 8.627 7.93867 0.294539 0.071403 0.238436
261 1 4.95897 1.75772 8.76078 -0.0516528 0.0367437 0.649009
262 1 3.26764 4.42053 3.46971 0.551482 -0.0209857 0.0321944
263 1 5.34013 4.02191 5.29958 -0.390539 1.40929 0.148826
264 1 5.7758 2.74849 2.28269 1.52919 -0.924333 0.118353
265 1 7.25344 5.63897 3.64758 -1.17293 0.98023 -0.486857
266 1 8.58335 6.45202 2.34367 1.68927 -0.100455 -0.415027
267 1 3.59693 8.48195 0.0374152 0.469932 0.179835 0.419614
268 1 5.94106 3.35129 6.78597 0.967934 -0.372815 0.375827
269 1 8.30738 6.17967 1.32895 0.953371 -0.485457 0.813556
270 1 8.03895 3.23766 5.87433 0.234173 0.526109 1.10751
271 1 2.89844 0.294226 3.26258 -1.34013 1.13739 0.139239
272 1 6.40955 4.01077 5.78859 -1.24 0.116789 -0.176575
273 1 8.84181 5.978 3.51451 -0.19357 0.119926 -0.424816
274 1 6.61027 3.28842 0.523458 -0.0294316 1.56102 0.0307252
275 1 2.80748 8.26231 7.85767 0.550529 0.641259 -0.480375
276 1 5.54165 7.17623 9.29268 0.151425 0.138335 0.676625
277 1 6.28677 4.42461 4.84179 0.819193 -0.64157 0.403032
278 1 1.23548 4.96749 1.24792 0.73916 -0.486702 1.06957
279 1 0.0219967 7.20726 0.291459 -0.77607 0.453848 -0.167224
280 1 5.63919 0.15246 7.74384 0.543869 0.768004 0.538718
281 1 5.99407 6.87265 3.50224 -0.475789 -0.314493 -1.0101
282 1 3.12052 6.72517 4.3739 -0.849988 -0.967527 -0.332811
283 1 8.95798 6.70812 6.15829 0.0663229 -1.06533 0.0163662
284 1 3.80665 0.504666 8.61306 0.162203 -0.278389 -0.982407
285 1 4.23251 4.59363 8.73875 0.958867 -0.372021 1.23352
286 1 2.51483 0.594267 7.26931 -0.0259747 -0.424511 -0.702719
287 1 8.61384 3.38029 2.30072 0.794939 -0.559081 1.53351
288 1 3.87225 0.129351 1.85793 -0.273874 -0.498473 1.36735
289 1 6.63425 4.24417 2.25744 0.901546 -1.07002 1.21607
290 1 2.23641 5.09838 3.65481 0.25144 0.056767 -0.658048
291 1 1.32784 0.539452 7.24975 1.2012 -0.0248714 0.373384
292 1 2.06162 5.24243 4.71985 0.295587 -0.00105379 0.464336
293 1 3.30173 7.68918 4.81586 -0.9959 0.718521 0.913956
294 1 3.66264 6.50926 7.08161 1.05937 1.13589 -0.196692
295 1 3.57891 6.11485 5.12977 0.250181 0.452562 1.03804
296 1 5.49935 3.412 4.50849 0.0447084 0.648094 0.462609
297 1 4.13216 3.62749 9.01777 -0.462313 0.173222 -1.07309
298 1 7.88686 2.16419 0.658783 0.0477435 -0.473805 0.534761
299 1 0.6645 7.98918 1.73133 0.366031 -0.00386795 -0.196462
300 1 6.38521 1.54143 1.15436 -0.0112909 0.0477576 -0.0883675
301 1 0.699611 2.25449 7.80453 -0.245171 -0.336647 0.388859
302 1 6.46692 8.34015 6.08535 -0.68017 0.0147396 -0.236838
303 1 4.4942 4.51481 6.86894 0.772579 0.549011 -0.742203
304 1 6.503 1.19214 0.183448 0.235983 0.494306 0.120362
305 1 1.43291 4.65608 0.292151 -0.924273 0.00575159 -0.561809
306 1 8.68595 0.156169 6.81784 -0.0740233 0.284306 -0.142305
307 1 4.60374 6.5792 1.66619 -0.0153603 -0.0856328 0.344379
308 1 6.21655 8.91189 3.85044 -0.32853 -0.807529 0.960289
309 1 3.62513 5.13163 4.77308 -0.274021 0.120476 -1.161
310 1 9.1177 2.15007 3.97919 -1.11911 -0.659506 -1.0718
311 1 5.71359 2.33884 8.34614 0.416137 -0.631201 0.423482
312 1 4.00457 7.11994 2.50469 0.807624 0.0973514 -0.967874
313 1 9.09853 7.71913 1.27156 -0.455974 -0.200287 0.635591
314 1 5.62349 4.65709 8.19015 0.508277 -0.330057 -0.0561772
315 1 6.09836 5.83271 6.52324 1.06508 -0.0720263 -0.263784
316 1 1.50081 8.51402 3.08791 -0.228807 -0.632896 0.168164
317 1 3.83058 3.00089 0.564378 -0.253714 0.913375 -0.0599717
318 1 0.357738 2.68974 5.34386 -0.800518 0.0811245 0.239072
319 1 7.4939 8.15933 6.41151 0.811997 -0.0764529 0.716157
320 1 8.07008 2.45121 2.33941 -0.421651 -0.0168702 0.494686
321 1 4.65683 8.83084 5.89343 0.0291845 0.566977 0.073086
322 1 0.288673 0.516957 7.08597 -0.0466179 0.0121981 -0.0447617
323 1 3.41801 5.70623 3.34506 -0.951005 0.326776 -2.01621
324 1 5.4756 1.63325 0.403229 -0.0723697 -0.85972 -0.441502
325 1 4.95323 2.01181 4.92942 0.617117 0.075718 -0.607539
326 1 7.86055 9.37021 7.416 0.1166 0.94018 -0.0198895
327 1 0.947235 7.08464 8.84274 0.52053 0.181664 -0.243729
328 1 4.46314 5.51231 1.8582 0.631318 1.72725 0.251408
329 1 1.93806 3.52309 4.371 -0.817471 0.433556 -2.17927
330 1 3.4402 2.59167 4.28597 0.939445 0.299274 -0.659085
331 1 4.51287 3.85885 6.03401 -1.29386 -0.0765209 0.35008
332 1 1.49919 4.14061 7.06023 1.01754 -0.84575 -0.446137
333 1 6.52866 6.53611 0.886694 -0.154812 0.550557 1.2988
334 1 3.43228 0.169423 7.64737 0.411261 0.399585 -0.579125
335 1 3.686 1.67448 1.03243 0.0136939 0.336935 0.143189
336 1 0.82756 0.197398 6.14924 1.05903 0.252151 -0.370061
337 1 8.64865 3.45492 0.207053 -0.0376053 1.25274 1.33687
338 1 5.83766 2.01894 3.20595 -0.739903 1.15447 0.228629
339 1 8.23833 8.46927 8.81466 -0.200469 0.346915 -0.34265
340 1 2.67921 5.0098 2.71066 -0.231317 -0.742494 -0.480408
341 1 1.36425 1.00633 0.397845 -0.0452239 0.195347 2.07109
342 1 3.70351 7.96136 8.29402 -0.255527 0.518769 0.571002
343 1 1.98307 3.35903 2.83931 0.822794 0.283876 0.413696
344 1 3.17343 0.857897 4.6994 -0.75553 0.354098 -2.42583
345 1 6.9733 8.53067 4.38822 0.00138693 -0.035855 0.735642
346 1 0.550349 5.83892 7.12048 -1.08022 -1.05549 -0.410964
347 1 9.06137 3.99476 7.54205 0.767393 -0.914544 0.298525
348 1 5.27584 3.13451 7.72695 -0.246031 -0.54832 -0.602316
349 1 3.98198 1.18258 1.82393 0.591503 0.538483 -0.461464
350 1 4.7187 3.68184 3.84239 1.24775 0.341688 -0.0462116
351 1 7.06165 9.03379 1.97996 0.717046 -0.0715626 -0.491596
352 1 5.1138 5.19405 8.92581 -0.600465 1.66914 0.843809
353 1 1.32359 1.21581 4.73304 -0.528297 -0.279748 -0.778153
354 1 2.61844 0.661469 8.3279 -1.04462 0.536255 1.10986
355 1 8.90326 3.60372 6.58739 0.390726 -0.0862856 -0.858869
356 1 0.5295 4.45078 0.687795 -0.575211 -1.01933 0.245566
357 1 5.57127 3.07053 1.11747 0.131458 0.523232 -0.979415
358 1 1.05537 8.84524 8.57633 -0.109534 0.589375 -0.656144
359 1 3.04648 3.6371 1.12165 0.107205 -1.14673 -0.071857
360 1 5.93802 3.06491 5.69948 0.439703 0.0563998 -0.530376
361 1 3.37853 1.89841 2.19633 0.902713 -0.504418 0.487229
362 1 6.66405 3.30998 1.82791 -0.512453 0.319032 1.23588
363 1 8.3093 7.34234 1.86795 0.242921 0.190613 -0.286928
364 1 4.25314 1.26939 8.0363 0.335253 0.168334 0.313116
365 1 1.16347 8.99112 1.8442 -0.750485 1.68929 0.413647
366 1 6.6572 7.85221 5.04961 0.0796339 -0.161829 0.389287
367 1 7.87687 0.800929 4.63687 -0.122536 -0.143389 0.286325
368 1 2.55252 7.48681 1.3224 -1.15395 0.0757905 -0.0847661
369 1 7.77819 2.38751 5.40423 0.178989 1.14765 -0.244624
370 1 4.89288 1.29764 1.23319 -0.366046 -0.79447 -0.0482491
371 1 8.17032 0.885359 2.67792 -0.729818 1.54833 -0.361861
372 1 5.06812 9.37861 0.202065 0.713581 0.613467 0.223675
373 1 7.8699 0.841271 6.76509 1.05716 -0.41692 -0.0377796
374 1 6.8848 6.85987 3.91701 0.823898 -1.3077 -0.197522
375 1 5.32748 5.76725 5.63289 -0.0417631 0.639312 1.01619
376 1 2.52122 1.74371 8.03721 0.341631 1.41373 0.195584
377 1 2.76281 5.15146 8.14418 -0.453856 -0.6276 1.39825
378 1 8.2481 0.0256407 2.1556 -0.897209 0.12044 0.427651
379 1 9.07873 3.47674 5.44861 -0.997411 -1.51082 -0.274834
380 1 8.62976 7.20682 3.01815 0.557342 1.32145 -0.210564
381 1 1.65913 5.37763 6.89703 -0.451546 -0.103403 -0.729802
382 1 6.53107 2.06047 2.08051 -0.0712235 0.079566 -0.791959
383 1 7.04923 2.5368 1.05766 0.733937 -0.196017 0.0370481
384 1 7.1977 8.28256 1.03955 -0.112087 -1.65743 -0.518764
385 1 5.05267 8.83545 1.95765 -0.0348462 -1.12682 -0.596596
386 1 0.246834 2.17736 1.19122 -1.00798 -0.0416512 -1.30653
387 1 7.46954 1.68149 2.58209 -0.439854 0.785017 0.687205
388 1 4.80093 5.90633 8.38595 -0.26468 -0.507433 -0.303309
389 1 7.40596 4.13986 6.04518 0.425966 0.835298 -0.241484
390 1 8.37415 4.49211 4.69171 -2.08767 0.269356 -0.267229
391 1 4.73867 0.982198 0.157134 0.0448937 -0.541997 1.03392
392 1 2.34045 0.863925 4.08779 0.0128962 0.272532 0.265963
393 1 4.53058 0.293985 7.69466 0.426352 -0.100587 -0.028653
394 1 9.35807 4.56165 6.14549 0.548134 -0.707633 0.402869
395 1 8.0539 5.38144 8.81474 0.465112 0.805247 -1.43213
396 1 2.92333 1.75631 5.28112 1.61449 0.615341 1.06398
397 1 6.99482 3.29539 5.272 0.40697 1.09385 1.67448
398 1 7.49015 6.97631 1.25375 0.304684 -0.104659 0.156169
399 1 2.08725 1.51839 2.27772 -0.195052 0.0042015 -0.00691783
400 1 6.98937 8.02156 2.2039 0.234417 -0.375521 -0.529625
401 1 3.47582 1.8419 6.18727 0.94651 1.08334 0.355397
402 1 7.41555 0.210437 5.35553 0.177155 0.363974 -0.0674011
403 1 0.730007 3.05882 1.75502 -0.633406 0.484843 0.532926
404 1 5.09287 6.98284 2.68357 -0.79612 -1.34226 1.02638
405 1 4.13321 1.73167 7.01536 -0.203532 0.898874 -0.773962
406 1 2.10426 4.17159 5.2334 0.0567243 -0.207489 1.03881
407 1 5.40889 8.40472 0.0177157 0.424685 -0.715869 -0.579223
408 1 4.72334 2.80837 8.51654 -0.0538151 -0.0141856 0.235855
409 1 2.88349 1.31449 2.97747 0.845674 -0.740079 0.205017
410 1 0.514543 3.94869 6.90865 0.301483 -0.271099 0.808846
411 1 6.56976 9.01188 5.21407 -0.562253 -0.605586 -0.411905
412 1 5.51942 0.47084 3.73444 1.12006 1.55679 0.0545526
413 1 2.11099 7.70327 0.431794 -0.265087 -1.42861 -0.251737
414 1 1.49156 7.54536 3.42304 -0.0964486 0.623377 0.0147039
415 1 1.36428 3.90267 1.10211 -0.287516 1.50078 -0.426151
416 1 9.42729 8.76585 3.44256 0.824552 -0.619087 1.20808
417 1 1.40386 8.04771 4.86921 0.0760191 0.296074 0.437966
418 1 3.43681 0.506912 1.00832 0.715568 0.12663 0.217688
419 1 7.60679 2.36782 3.32616 0.391556 0.207442 -0.506356
420 1 0.0482879 1.76671 4.95858 -0.0566095 -0.0765572 -0.0431049
421 1 8.00664 8.47988 1.8265 -0.222864 0.165729 -0.60428
422 1 2.95775 2.71305 5.78214 -0.29581 -0.215002 0.225721
423 1 8.16359 7.48021 9.29348 -1.72958 0.534597 0.575091
424 1 7.40443 8.44205 5.47688 -1.4912 0.321468 -0.594238
425 1 1.78194 1.89903 5.37799 0.418206 0.967609 0.791826
426 1 9.05087 0.77529 8.69363 -0.099914 1.85863 1.21802
427 1 6.48243 5.74503 5.53052 0.220688 -0.886672 -0.390453
428 1 3.4233 2.75968 6.92661 0.0379505 -0.93749 -0.22138
429 1 4.74771 3.40457 0.376475 1.13698 -0.0323333 0.811337
430 1 2.47588 8.81288 6.15597 0.148064 -0.255641 -0.0221183
431 1 9.21951 7.53356 7.49356 -0.136912 -0.433483 0.481347
432 1 6.01001 0.857217 6.92527 -0.84847 -0.378834 -0.313336
433 1 3.61853 2.17083 7.78223 0.179534 0.335609 -0.552102
434 1 4.72857 4.51533 2.06245 -0.456331 -0.859025 0.779904
435 1 1.99127 0.689361 2.88116 -0.258995 -0.71038 0.035408
436 1 2.07109 3.40408 9.13094 -0.145144 -0.0626806 -0.587202
437 1 8.42119 5.07927 7.91872 0.540148 -0.0392324 -0.751785
438 1 1.58604 8.98086 0.11476 0.843068 -1.35864 0.968644
439 1 5.08632 6.2193 4.1684 -0.385245 0.888007 -1.30545
440 1 0.605836 4.42725 2.73923 -0.633472 0.149452 0.0184821
441 1 9.00773 0.781741 2.00765 0.435054 0.0121132 -0.559319
442 1 5.00919 7.04927 0.772743 -0.951109 0.19843 0.492625
443 1 3.96661 6.60708 8.05307 0.327784 -0.200991 1.29779
444 1 7.85688 6.58394 4.2628 0.161982 0.107658 -0.868847
445 1 4.88171 0.559233 8.64321 -0.470514 0.335727 -1.03621
446 1 7.39677 5.92345 2.39854 0.158929 -0.676242 -0.442652
447 1 1.14039 7.37255 0.577288 -0.235306 0.00615449 0.0511639
448 1 4.60553 7.68501 7.84018 -1.3909 -0.28401 0.133413
449 1 2.19586 1.4522 9.02031 0.371004 0.332199 -0.189838
450 1 2.03983 8.99235 7.30725 0.213894 0.0216875 1.96328
451 1 6.86916 0.660826 8.72716 -0.939449 -0.10474 -0.705675
452 1 5.67189 6.66234 8.29262 0.752149 1.12432 -0.107834
453 1 5.43915 7.75642 8.39085 0.955365 1.48082 0.616512
454 1 5.71112 6.37946 5.00339 -1.21072 -0.0309628 -0.706826
455 1 4.03701 5.54104 6.83361 -0.485361 0.69085 0.0750579
456 1 0.985271 6.36201 2.36961 -0.522542 0.72449 -0.0986623
457 1 4.91483 4.42163 0.143986 0.0492509 -0.714591 -0.0990325
458 1 8.56695 7.38021 4.44592 -0.317863 -1.21174 0.686008
459 1 3.0219 7.02147 2.24892 -0.494986 -0.69244 1.26612
460 1 8.21274 2.58067 9.15323 0.0878982 -1.35359 0.351094
461 1 9.17618 4.91182 3.29817 -1.09726 0.51187 -0.138845
462 1 0.999793 6.61276 3.38491 0.187709 -0.285388 -0.896588
463 1 2.0564 0.447099 9.20497 -1.08601 0.776234 1.10116
464 1 9.24519 6.31955 0.788492 0.0207049 -0.345441 0.594363
465 1 1.67239 8.1409 2.04211 -0.666527 0.0813428 0.40247
466 1 8.13526 7.87995 0.931572 -0.519438 -0.821799 -0.205892
467 1 5.31063 1.23944 2.90832 -0.43845 0.163911 0.948466
468 1 6.67982 8.82479 2.97355 -0.976419 0.366222 0.7085
469 1 2.39984 2.15531 1.24772 0.153539 -0.0496637 -0.411168
470 1 6.81872 5.3416 4.72902 -0.19335 0.31447 0.411748
471 1 2.56537 8.61458 0.158497 0.0172982 -0.543375 1.01261
472 1 2.41376 7.06156 6.33207 0.185048 -0.790428 -0.79629
473 1 8.86946 1.22707 6.85017 0.307937 0.600553 0.260392
474 1 6.72827 1.76662 8.50834 -1.7733 -0.44445 0.0164989
475 1 4.47798 8.93848 8.7926 -0.196112 -1.03482 -0.41552
476 1 2.84276 5.72694 4.30941 0.193379 -0.812759 1.13465
477 1 8.42482 6.88527 7.78524 -0.065902 0.234181 0.431742
478 1 5.69763 9.25172 4.6304 -0.274852 -0.897451 0.459437
479 1 7.37873 0.692065 2.07128 -0.722108 0.679054 0.224912
480 1 6.00142 6.74763 6.0283 -0.015547 -0.0474987 -0.0756889
481 1 2.77956 4.50897 4.44197 0.551695 0.367493 -0.0494069
482 1 4.58002 6.253 5.17838 0.0103896 -0.0719339 1.0713
483 1 1.1703 5.01817 3.45376 0.465123 -1.10233 0.316586
484 1 0.107336 3.63667 9.09033 0.650712 -0.261015 -0.0503233
485 1 6.91685 5.76829 7.22447 0.685023 -0.316215 -1.97207
486 1 1.73102 4.54466 2.77269 0.0549696 0.628451 -0.12657
487 1 0.72147 6.38624 4.45847 -0.090859 -1.07293 -0.558009
488 1 6.72197 2.25603 5.57447 -0.864267 -0.231852 -0.19882
489 1 6.45044 8.56846 0.415905 0.514436 0.848379 -0.501372
490 1 5.4813 5.80865 2.07846 -0.211314 -0.48164 -0.540048
491 1 4.69746 5.28247 2.91286 -0.732917 0.773827 -1.11509
492 1 1.66602 9.08747 5.4836 0.497172 -0.468029 -0.483258
493 1 8.0021 4.38728 0.629576 -1.54363 -0.491952 -0.8743
494 1 4.19682 4.12693 2.97863 1.26074 0.0440566 -0.140594
495 1 3.13144 8.32839 1.07052 -1.05255 0.347731 2.03681
496 1 2.67996 9.41128 5.30736 0.289175 1.34067 -0.0352625
497 1 6.44017 7.57438 6.77164 -0.367123 1.35855 0.868344
498 1 2.59949 1.22005 0.536588 0.241641 -1.13783 -1.20861
499 1 3.54573 3.02742 2.29863 -1.01752 0.573646 -0.287919
500 1 6.71999 6.3043 8.11868 1.24577 0.166375 -0.179092
501 1 5.77968 4.04806 3.79124 -0.545046 -0.48648 -0.0487012
502 1 7.88318 3.9638 3.98737 0.208523 -0.870914 -0.108413
503 1 3.31187 1.20081 7.59107 0.163089 -1.11952 -1.01967
504 1 2.82893 0.595018 2.18452 0.15331 0.371549 -0.0429246
505 1 7.65331 3.25062 0.514495 0.587193 -0.483425 0.252945
506 1 5.645 5.77954 7.57654 1.02094 0.0920821 -0.437709
507 1 5.50955 7.80105 7.32897 0.307292 -0.905705 2.18015
508 1 0.851324 8.22197 3.83153 -0.387993 0.786763 -0.630049
509 1 3.37379 2.58492 1.3656 0.462432 -0.432842 0.235763
510 1 5.74727 4.71979 0.537625 -2.43045 -0.425638 -0.394698
511 1 6.24255 1.73475 7.57501 -0.113954 0.67854 0.299192
512 1 1.96603 6.29193 1.95443 -1.28751 -0.80476 -0.429168
513 1 4.70258 7.8297 1.57916 -0.0941484 0.470104 0.183664