ITEM: TIMESTEP
40
ITEM: NUMBER OF ATOMS
1000
ITEM: BOX BOUNDS pp pp pp
0.0000000000000000e+00 9.4000000000000004e+00
0.0000000000000000e+00 9.4000000000000004e+00
0.0000000000000000e+00 9.4000000000000004e+00
ITEM: ATOMS id type x y z vx vy vz
1 1 4.79373 0.23795 1.30903 1.02103 -0.111447 0.372057
2 1 7.96438 2.96539 7.77515 0.411127 0.469259 -0.889067
3 1 0.0690018 3.20693 3.69608 0.316557 -0.193729 -0.667932
4 1 0.594359 8.0763 6.80732 0.501325 -0.457584 0.865528
5 1 5.64589 2.18956 5.7686 -0.0186229 -0.493068 -1.1252
6 1 7.09384 7.42723 6.02395 0.465854 1.08195 -1.33195
7 1 1.22459 8.44961 0.786361 -1.69183 0.565107 -0.119794
8 1 2.32658 2.16429 6.10637 -0.256287 -0.259526 0.828936
9 1 1.2518 2.81659 4.7813 -0.214718 0.155626 0.555869
10 1 2.9632 9.0835 1.72635 0.432131 0.698643 0.63433
11 1 8.41833 6.99492 0.776995 0.808247 0.233799 0.475165
12 1 6.85089 3.14566 2.53671 -0.154535 -0.35506 -0.427589
13 1 8.32551 1.75524 6.17371 0.699188 1.26348 0.806457
14 1 3.63436 6.12326 1.66245 0.441074 -0.474886 -0.141104
15 1 7.73232 3.0402 1.53583 0.517297 0.502357 0.188908
16 1 1.27475 3.07567 8.5549 0.678853 0.36642 -0.240575
17 1 8.25978 4.48986 6.82972 -0.327393 1.307 1.34921
18 1 0.0868889 3.45658 2.53117 -0.141238 0.842623 -0.00865948
19 1 6.22718 2.90472 9.03822 0.435019 -0.232037 0.744633
20 1 4.26715 3.34015 6.99426 0.621248 0.21509 0.00021496
21 1 1.67902 4.98503 5.7674 0.779397 1.31988 0.705343
22 1 2.82552 3.39861 4.79772 -0.871548 0.164343 -0.356348
23 1 5.13607 3.68748 8.64556 -0.669248 0.437744 -0.966748
24 1 2.34394 4.17786 8.22892 -0.381881 0.195751 0.818882
25 1 6.15783 2.93991 7.61098 0.181419 -0.322879 -0.457941
26 1 2.04619 3.10493 5.43217 -0.136232 0.642862 1.19859
27 1 8.33979 0.890994 7.70511 0.502973 -0.570644 0.0922245
28 1 4.40362 6.24745 3.31411 0.289962 -0.185987 -1.58297
29 1 3.09621 0.0423028 0.0201754 0.510635 -0.319572 0.590185
30 1 7.37637 2.88942 4.37882 -0.812903 -0.587926 0.0414937
31 1 8.66996 3.04035 1.08461 1.21434 -0.0480994 -0.197011
32 1 4.33124 0.309611 5.5813 -1.16028 0.941562 -1.43432
33 1 1.79928 7.28685 8.39829 -0.0423242 0.918571 0.14692
34 1 3.49668 7.30996 1.59665 -0.0916584 -0.293438 -0.739887
35 1 9.42131 0.674831 5.9754 1.63946 -1.42072 0.374833
36 1 6.44646 6.38525 1.97101 0.220155 -0.416913 -1.00984
37 1 8.53047 1.53908 9.30556 0.0486443 0.114264 0.465822
38 1 1.29456 1.61473 2.96449 -1.01317 -0.534742 0.0622439
39 1 0.400628 0.83451 4.19557 -0.722386 -0.0725488 -0.256472
40 1 2.27517 4.01538 0.590571 -0.361845 0.519337 -0.0721126
41 1 6.18963 0.0279299 6.2216 0.877547 -0.211141 -0.685097
42 1 1.42456 1.9694 8.82747 -0.196432 -0.0558484 0.224742
43 1 1.98247 2.97807 1.68216 1.10808 -0.282474 -0.337386
44 1 7.4548 1.24936 5.64897 -0.0459045 0.676093 0.372019
45 1 6.39133 2.3393 6.60457 -0.751537 -1.23457 0.238133
46 1 7.74868 6.73957 3.17884 0.608799 0.149734 -0.999137
47 1 6.08993 5.70701 0.277416 -0.273386 0.560595 0.210737
48 1 7.60452 7.63204 3.86421 -0.916707 -0.550835 0.276924
49 1 3.42152 4.50105 6.69429 0.0876223 -1.52523 -1.69749
50 1 8.69622 8.0633 3.75347 -0.318874 0.275616 0.778114
51 1 6.22658 7.27518 2.7312 -0.524013 -0.396265 -0.51595
52 1 1.12873 3.56103 0.197955 -0.402289 0.432891 0.112346
53 1 5.57904 3.02493 3.11425 -0.238327 -0.381235 -1.1891
54 1 9.39846 6.10133 5.30653 1.55523 0.928822 0.411818
55 1 8.79932 5.15443 5.44801 1.6548 -0.0841799 -0.403773
56 1 0.0268563 4.42571 5.11134 -0.913384 0.183692 1.0566
57 1 0.252081 9.03917 6.36246 -0.0308575 0.459865 -0.523372
58 1 5.10669 3.93173 1.25436 1.09268 -0.820405 0.166911
59 1 0.451019 7.4764 4.76637 -0.110753 0.445922 1.00697
60 1 0.405336 5.46753 0.505521 0.616206 -0.761844 0.113818
61 1 5.62689 9.02607 8.80353 0.409266 0.142109 -0.166905
62 1 0.378254 0.420519 1.41645 0.836388 -0.476624 0.166449
63 1 7.29616 7.04591 7.69606 -0.476919 -0.890054 -0.382763
64 1 3.36655 5.44479 8.98869 0.993242 0.461533 0.575646
65 1 2.31678 2.58936 8.87435 -0.27006 -0.781785 0.387212
66 1 6.32587 4.83982 9.18103 -0.288046 0.227089 0.318537
67 1 6.38925 5.41412 2.44022 0.629951 -0.861629 0.663998
68 1 4.14387 5.15588 0.235591 0.902772 0.0373836 -0.0811329
69 1 2.4299 3.03474 0.626323 0.349894 0.37419 -0.110365
70 1 0.297213 1.46608 3.29724 0.192116 0.232841 0.333624
71 1 7.26444 5.87399 1.21478 0.176423 -0.90099 -1.11874
72 1 7.07758 4.89016 1.58869 1.48693 -0.112388 1.36745
73 1 2.0913 8.57558 1.31112 -0.502066 -1.25571 0.915931
74 1 4.59719 5.10258 7.77782 0.095953 -0.580424 0.494735
75 1 8.36466 9.23662 5.02833 -0.147736 0.0947152 -0.63699
76 1 6.783 8.01032 3.39015 0.882415 1.28136 -0.597389
77 1 4.74576 4.08943 7.70299 -0.812743 -0.0600261 -1.76866
78 1 2.44525 4.95263 9.19667 0.691282 0.511471 -1.26959
79 1 7.65276 7.78498 2.86088 0.235983 -1.09974 0.740679
80 1 0.0741328 6.53624 2.88481 1.15069 0.0252555 1.58349
81 1 5.88215 0.284059 2.71539 -1.09101 0.0379743 0.437775
82 1 0.0781196 3.12481 7.35296 0.0262401 -0.332301 -0.0895992
83 1 3.34909 8.46093 4.42334 0.860277 0.217292 -0.994337
84 1 0.708283 4.76442 7.39563 0.221989 -0.0847262 0.209544
85 1 2.43152 2.17052 3.18526 0.0626112 -1.75977 -0.412973
86 1 3.24642 4.51446 8.67199 -0.0151852 -0.947088 0.0108096
87 1 9.03176 4.43203 2.12328 -0.577346 -0.329568 -0.0447357
88 1 0.580685 1.80992 2.18982 0.425293 0.435572 0.715521
89 1 4.33361 2.08003 1.78772 -1.14055 -0.215288 -0.908731
90 1 7.19023 7.02082 2.31656 1.8242 0.374437 -0.204428
91 1 4.57426 2.7168 3.33969 -0.405521 0.00910795 -0.116484
92 1 0.686609 1.29987 8.70218 -0.765967 1.07655 -0.790243
93 1 3.99224 5.77861 2.51752 0.657064 -1.22898 0.696575
94 1 4.81543 8.41738 1.09269 -0.847422 -0.577372 -0.524587
95 1 6.21311 6.02687 4.21566 0.229693 -0.510142 -0.622333
96 1 4.00549 8.63797 7.59281 0.732601 -0.208835 0.618879
97 1 5.71064 4.76285 2.93437 0.738114 0.819107 0.337727
98 1 8.57273 8.68334 2.91266 0.177252 0.545658 -0.600085
99 1 0.814427 0.0719196 2.62361 -0.754295 0.670549 -0.399213
100 1 6.66107 0.107713 7.84513 0.376768 -0.392003 0.117397
101 1 8.61376 5.15703 0.882315 -0.650292 1.25601 1.03915
102 1 7.64467 6.42676 8.74556 -0.585582 -0.342921 0.45821
103 1 4.83381 0.566227 2.36803 0.190527 -0.812328 -0.048943
104 1 8.74989 0.00867922 1.19987 0.238938 -0.425759 -1.06567
105 1 7.513 8.86744 8.28115 -0.447739 0.701639 -1.27416
106 1 3.91015 3.22151 7.96621 -0.81205 1.90704 0.48843
107 1 1.19966 7.12029 1.65842 -0.241756 -0.388117 -0.243284
108 1 9.04906 5.5495 9.05756 0.476467 0.00641938 0.917213
109 1 5.67895 1.68067 6.69244 -0.269251 0.798849 1.07166
110 1 2.65208 7.88397 6.65947 0.290139 -0.420537 0.134955
111 1 2.26737 0.123789 0.787707 0.455943 -0.562164 -0.55026
112 1 1.32404 5.97794 5.22689 0.293515 0.288569 -0.121483
113 1 -0.0121503 8.97247 7.4829 -0.936644 -0.110503 0.398708
114 1 2.09013 6.34171 4.6556 0.976155 -0.264359 0.853761
115 1 5.8373 8.55264 7.08779 -0.196544 -1.00171 -0.418721
116 1 2.21453 7.85266 2.98346 0.649866 -0.207147 1.26946
117 1 7.41276 8.26154 9.29001 0.727474 0.255353 -1.20636
118 1 0.466836 0.275316 8.06066 -0.220409 -0.825087 -0.0588168
119 1 7.65259 0.118768 2.95267 -0.297592 -0.648519 0.730803
120 1 7.44243 6.7463 0.296488 0.478791 -0.304838 -0.218192
121 1 5.79496 5.74061 8.6813 0.271102 0.724853 -0.249952
122 1 0.257984 8.82464 1.0409 -0.394531 0.452933 0.966504
123 1 1.52726 2.3403 6.90062 -0.523813 -0.236747 0.586532
124 1 3.38592 6.48473 3.09379 0.335863 -0.0735872 0.17889
125 1 0.740907 2.37747 3.91417 -0.86992 -0.332748 0.785014
126 1 0.314495 6.9792 6.86902 1.14684 0.191026 0.467466
127 1 1.78862 0.219385 4.55869 -0.497892 0.60734 -0.545422
128 1 4.87384 2.90305 5.34046 -0.600613 -0.207758 0.846845
129 1 4.72186 4.77525 1.02081 -0.295616 -0.105798 -0.184717
130 1 8.38337 0.712453 5.82619 0.995236 0.116854 0.566935
131 1 9.09721 0.753477 4.9645 0.228976 -0.259297 -1.12903
132 1 6.73138 3.71319 4.21544 -1.0081 -0.776829 0.726641
133 1 4.05018 3.7894 4.23459 -0.167446 0.295334 0.01681
134 1 6.17173 2.32188 0.48079 0.637028 0.0345933 -0.509714
135 1 8.56969 1.67199 5.17332 -0.129431 -0.729953 0.742826
136 1 3.82645 5.78211 4.06003 0.287036 -0.242138 0.548559
137 1 2.87842 2.68263 7.9412 -0.860625 -0.105736 -0.790689
138 1 1.5 6.94858 5.49845 0.748597 -0.522886 1.11725
139 1 0.74114 0.306571 4.94521 -0.430715 0.00504512 -0.0364619
140 1 1.0833 3.77358 3.43139 -0.668098 0.234239 -0.715062
141 1 2.29601 3.11887 6.48777 -0.513014 -0.810505 0.354914
142 1 3.39194 3.5435 6.25669 -1.48176 1.37514 -0.396387
143 1 3.04856 6.31356 8.63312 -1.63196 -0.288244 0.510108
144 1 8.87225 8.56762 1.74453 -0.608665 0.214101 0.368393
145 1 0.507682 6.48701 7.80821 -1.15433 -0.424002 -1.1518
146 1 5.75838 8.94241 1.03274 -1.99526 0.864542 -0.259455
147 1 1.306 7.26577 6.49356 -0.787922 -0.441987 0.701846
148 1 9.08381 4.61037 8.38335 -0.520398 1.27736 -0.632625
149 1 1.83396 6.73923 2.74321 0.449373 -1.65838 -0.444193
150 1 1.05186 7.3821 7.53198 -1.14862 -0.359121 -1.17661
151 1 3.92656 8.39692 5.35637 -1.68687 1.38373 0.218837
152 1 4.35696 9.23254 2.87728 -0.561195 -0.15443 -0.125963
153 1 8.77808 2.70941 2.96085 -0.256105 -1.97051 -0.523322
154 1 5.83047 6.74723 7.32378 -0.261657 -0.395198 -0.815131
155 1 5.43028 1.19847 5.70347 0.720782 -0.480916 -0.84395
156 1 3.80495 0.742423 2.83988 0.885847 -0.0916346 0.19058
157 1 8.44858 9.29492 8.02974 0.284579 0.322511 0.355581
158 1 0.542442 8.53693 4.81802 0.428255 1.44603 1.44506
159 1 6.21452 7.71899 4.16416 0.0998113 -0.477966 0.967254
160 1 9.10061 1.04729 0.870747 -0.0620608 0.147347 -0.0837772
161 1 2.22732 5.06671 0.758544 2.08351 -0.0929482 -0.444162
162 1 7.25371 4.54015 8.37029 -0.59769 0.79449 0.385126
163 1 6.43576 5.10276 8.13668 0.517186 -0.521299 0.0103815
164 1 1.65784 5.65787 2.90035 0.388007 -0.748132 0.067766
165 1 3.53162 1.45234 8.62328 -1.06693 -0.754153 -0.642465
166 1 8.22141 5.14504 3.96886 -0.215021 -0.2144 -0.443952
167 1 0.513354 8.84639 -0.0587356 -0.427516 0.0466432 -1.22663
168 1 6.89587 4.87941 0.635212 0.237296 0.291226 -0.458981
169 1 0.103402 5.55924 8.02253 0.501815 0.0604678 -1.5566
170 1 2.33703 7.22488 3.87474 0.677489 0.25474 -0.318518
171 1 0.817124 5.26792 2.27172 0.527451 -0.700046 0.570828
172 1 6.47376 6.52246 9.2423 0.289257 0.261484 -0.471294
173 1 6.18968 8.90764 2.00537 0.377735 -0.699352 1.64657
174 1 2.19008 3.42722 7.49381 -0.0730092 1.23782 -1.12071
175 1 4.09813 0.0147922 9.29459 0.0713072 -0.145524 0.698364
176 1 3.44158 7.48285 3.71584 -0.439337 -0.622242 -0.61704
177 1 1.07488 0.342953 8.90262 -1.75473 -0.00227297 0.307611
178 1 4.18519 6.47993 6.07109 0.44328 0.679187 -0.274035
179 1 7.21209 3.99529 9.25068 -0.322125 -1.21352 0.0785131
180 1 4.49519 7.27752 6.77918 -0.177445 -0.483499 -0.638247
181 1 7.80894 5.65494 0.361621 0.0130856 -0.358446 0.883071
182 1 5.58625 7.9299 2.1097 -1.03426 -0.240463 0.150186
183 1 4.6731 7.00644 8.69233 -0.272946 -0.194425 1.04588
184 1 7.93852 6.60511 6.89956 0.499965 1.54644 0.958411
185 1 8.03341 1.98183 4.31261 0.204229 -0.149086 -1.41491
186 1 7.55442 7.30967 5.03125 0.788896 -0.640318 -0.924526
187 1 8.00696 4.51439 1.48394 0.197729 0.347804 -0.321273
188 1 9.22466 6.5613 8.54153 0.69187 -0.57587 -1.49983
189 1 8.05231 3.52751 4.94503 -0.90747 -0.361652 0.298614
190 1 8.69949 3.7782 3.29517 -0.43142 0.817097 0.839081
191 1 6.96212 2.69492 8.33899 -0.183962 0.245401 0.0590151
192 1 8.2375 5.5657 6.90029 0.849403 -0.0348534 -0.801393
193 1 4.05048 7.24433 5.37659 1.26902 0.416084 0.816152
194 1 5.23437 0.960504 7.29877 0.25299 0.556982 -0.206077
195 1 0.355386 8.05335 8.01386 -1.16297 0.66464 -0.497492
196 1 5.60148 6.89231 1.55262 -0.265906 0.457203 -0.88199
197 1 3.81056 3.40112 5.21387 0.487736 0.656214 -0.292125
198 1 0.908894 4.73542 6.39384 0.436104 -0.120456 0.160565
199 1 8.28014 5.96115 5.91008 -0.233932 -0.24131 -0.610828
200 1 4.82614 7.96771 5.22864 0.575829 0.434736 0.736325
201 1 0.273624 3.2911 0.717772 -0.474554 -1.14346 0.185405
202 1 8.93068 3.72642 4.44052 1.1339 0.209173 0.750696
203 1 9.23599 5.6583 6.24902 -0.285651 -0.04459 -1.23678
204 1 7.11412 1.78436 4.80256 0.231273 -0.525071 -0.558492
205 1 1.3463 9.03435 6.42031 -0.884715 1.24388 -0.0728804
206 1 4.86802 9.15697 3.90008 0.667603 1.41444 0.235547
207 1 7.2292 4.90341 7.35903 0.488906 -0.649599 -0.259766
208 1 1.53955 3.91643 6.03921 0.577895 0.653646 0.682339
209 1 6.6259 7.43134 1.50664 -0.627395 0.121753 0.738373
210 1 1.47607 5.31056 8.88774 0.813653 -0.18791 -0.762603
211 1 3.93913 2.28194 5.15368 0.136376 -0.406651 0.398612
212 1 4.07086 3.95219 1.86109 1.00929 1.63674 -0.646548
213 1 4.07461 2.72665 6.05804 0.697522 1.10884 -0.530777
214 1 0.751976 6.45734 0.39255 0.274125 -0.822169 1.01837
215 1 7.06444 7.35086 8.84938 0.307421 0.962277 0.0327996
216 1 3.703 2.54437 8.84076 0.262955 -0.341505 1.1654
217 1 5.68508 1.01904 1.91698 0.0258127 -0.367448 -0.246222
218 1 0.235015 2.94448 8.41472 -0.283187 0.0229854 1.13463
219 1 4.78261 2.2558 0.783496 0.437542 0.218083 0.122584
220 1 8.77344 3.4285 8.30623 -0.11251 1.57152 1.00151
221 1 6.62203 2.86327 3.65749 -0.257831 0.146185 0.769067
222 1 5.13882 5.21238 6.77667 0.675216 1.43737 -0.331983
223 1 8.45943 5.31924 1.98123 -0.296808 0.284908 0.0589333
224 1 5.64898 7.80984 0.950089 0.123812 0.0489954 0.875544
225 1 2.85777 1.76988 4.01237 -0.55725 -0.854658 -0.154018
226 1 8.16518 7.41722 6.30448 -0.549851 0.59333 -0.195658
227 1 3.04844 3.84564 2.53748 0.220693 0.247734 -1.06369
228 1 8.67447 8.26974 7.92238 0.748434 -0.369399 1.42645
229 1 3.0892 7.35994 0.572855 -0.970435 0.335405 0.2918
230 1 3.71129 0.882362 6.56344 0.567057 -0.663452 0.631274
231 1 3.57005 7.64109 7.17657 -0.0377104 0.592841 0.265354
232 1 1.74625 8.23449 7.93583 -0.376559 -0.367035 -0.623527
233 1 7.77274 7.82362 8.34012 0.51218 0.892498 0.463891
234 1 5.3348 2.52273 9.25911 -0.177294 -0.825197 -0.455932
235 1 0.774828 5.39849 4.55929 1.12034 -0.21326 1.61302
236 1 7.27789 5.89765 6.31504 1.51649 -1.54694 0.340132
237 1 7.68014 3.48355 6.91452 -0.59822 -0.060791 0.0466186
238 1 4.22601 1.84679 0.0430652 1.0436 -0.256884 -0.920284
239 1 8.9521 4.00402 1.13434 0.755337 0.0919435 -1.10839
240 1 4.59965 9.01649 4.85554 -0.972061 0.0812263 1.06151
241 1 5.42804 5.86271 3.20401 -0.599374 0.795127 1.08724
242 1 7.87453 3.26811 2.76446 0.263696 0.331833 -0.222754
243 1 1.19574 0.941034 2.02913 0.0498888 0.803919 -0.619158
244 1 7.97274 4.00029 7.80746 0.377071 0.34143 0.157193
245 1 7.18551 5.02517 2.89939 0.355898 -0.0520218 -0.549265
246 1 2.45169 6.98523 9.23568 0.266573 -0.794394 2.50325
247 1 1.40926 1.99525 1.54179 0.147113 -0.0202616 -1.17005
248 1 9.29744 8.83089 8.5272 1.03407 -0.61947 -1.01148
249 1 1.37528 6.99001 4.39726 -0.274409 1.18358 -2.39868
250 1 2.23553 8.92964 2.64678 0.790929 -0.513518 0.95651
251 1 2.07662 7.28026 7.32456 -0.973815 -0.615918 -0.47198
252 1 3.49215 3.32363 3.44087 0.456097 -1.72525 -0.34671
253 1 0.79041 6.25972 6.02994 -0.493822 0.611121 -0.188322
254 1 5.53254 1.4733 4.01154 0.568452 0.172286 -0.648886
255 1 9.02167 8.28506 0.182877 -0.861012 0.570048 -0.139203
256 1 8.90541 7.52241 8.69065 0.277225 0.951746 -0.174734
257 1 4.99266 0.675558 4.5748 -0.0782812 0.00669395 -0.0554169
258 1 4.42458 1.60406 3.02076 1.44326 0.90948 0.562412
259 1 2.73097 5.49937 1.52853 0.362387 0.042153 -0.00686775
260 1 5.11324 8.57484 7.82427 1.26275 0.250194 -0.778702
261 1 5.13507 1.63135 8.97507 -0.788126 -0.308568 -0.0166655
262 1 3.31686 4.35147 3.4309 0.161941 -0.49838 -0.240403
263 1 5.33467 4.01853 5.52492 0.533972 -0.294233 -0.0255976
264 1 5.92203 2.72884 2.22245 -0.508152 -0.0555521 0.22329
265 1 7.38174 5.65439 3.78915 -0.154399 0.601825 0.0247945
266 1 8.57949 6.32153 2.38378 0.982436 -0.408047 1.04052
267 1 3.32463 8.17165 9.33857 0.532685 0.0430098 0.225404
268 1 5.88391 3.2672 6.63178 0.412833 0.697973 0.750686
269 1 8.25172 6.08348 1.35434 -0.637004 -0.675486 0.381026
270 1 7.86051 3.29963 5.90564 -0.695489 0.156875 -0.221937
271 1 2.80146 0.257005 3.26347 -0.325578 -0.065337 -1.31795
272 1 6.40934 4.07058 5.78124 1.0431 0.253125 0.837449
273 1 8.48167 6.12357 3.52719 0.894349 -0.0501906 -0.27362
274 1 6.68453 3.3005 0.505264 0.0137662 -1.25386 -0.29206
275 1 2.84152 8.24429 7.72468 -1.90278 -0.330209 -0.607896
276 1 5.36076 7.29939 -0.00781029 0.639427 -0.131669 -0.293326
277 1 6.08058 4.57913 4.85431 0.531117 -1.48435 0.385688
278 1 1.19468 4.91445 1.21091 0.682099 0.0165739 -0.0951954
279 1 9.34432 7.21808 0.230915 -0.248562 -1.11985 -0.273597
280 1 5.67338 0.112905 7.89807 0.225787 -0.406486 0.270194
281 1 5.915 6.79331 3.55436 -0.0987692 0.45437 -0.185217
282 1 3.10106 6.6094 4.33623 -1.22405 -0.430119 1.43831
283 1 8.96572 6.65683 6.203 -0.156421 -0.655912 0.385342
284 1 3.91983 0.486354 8.4434 0.424014 0.0247156 -0.998581
285 1 4.28736 4.50992 8.56173 0.818619 -0.50058 1.22866
286 1 2.74474 0.577287 7.15491 0.965618 -1.06371 -0.128083
287 1 8.50506 3.52071 2.02215 -0.815862 0.63796 -0.367469
288 1 3.93535 9.40606 1.90871 -1.33724 0.448366 -0.0857828
289 1 6.43702 4.38339 2.24585 0.00671968 -0.112621 0.140798
290 1 2.43906 5.06774 3.56894 0.359996 0.972267 -1.75269
291 1 1.49707 0.556535 7.01762 -0.84124 -0.0746723 0.147096
292 1 1.95144 5.20383 4.80572 -0.610977 -0.797542 -1.27847
293 1 3.28727 7.52374 4.72507 -0.22262 0.376158 0.412361
294 1 3.79362 6.46503 7.10959 -0.603668 1.38171 -0.0467348
295 1 3.63879 5.96646 5.13709 1.138 -0.271918 0.850656
296 1 5.52027 3.35436 4.69584 0.653521 -0.885963 0.750238
297 1 4.08998 3.49801 8.97115 0.0420347 -0.00686151 -0.131714
298 1 7.89216 2.33707 0.632047 -0.821999 0.364142 1.0023
299 1 0.595953 8.0177 1.59706 0.143112 -0.852763 -0.128386
300 1 6.34283 1.52442 1.13748 -0.629086 0.440094 -0.413017
301 1 0.792855 2.17628 7.94246 -0.422819 0.619874 -0.462252
302 1 6.39085 8.43632 6.15254 -0.712434 -0.308474 -0.341691
303 1 4.39733 4.45716 6.86205 -0.225976 -1.20678 0.866989
304 1 6.53164 1.25924 0.188751 -0.728508 0.909474 -0.877548
305 1 1.51105 4.5478 0.28207 0.26 -0.429831 0.795776
306 1 8.77159 0.261827 6.86869 0.546631 -0.236567 -0.8577
307 1 4.62627 6.38536 1.76511 -0.0523475 -0.874388 1.33658
308 1 6.06541 8.83352 3.73453 0.0796668 0.854874 -0.825317
309 1 3.66819 5.02574 4.81588 0.177804 1.02042 0.208958
310 1 9.06624 2.16821 3.79331 0.745347 0.228859 0.148908
311 1 5.6427 2.28326 8.34309 0.288756 0.229108 0.378402
312 1 4.18136 6.91363 2.51927 0.659973 0.642002 0.569404
313 1 9.00716 7.72468 1.12983 -1.13426 0.295414 -0.511239
314 1 5.46442 4.66796 8.27634 -0.270423 0.890782 -0.120087
315 1 5.93067 5.84202 6.51997 -0.479305 0.489266 -0.455112
316 1 1.26326 8.53453 3.01306 0.955978 0.321398 0.410734
317 1 3.85059 2.79262 0.513204 -0.657625 -0.367293 -0.158643
318 1 0.384151 2.59939 5.29201 -0.619902 1.26028 -0.431423
319 1 7.57074 8.29704 6.65732 0.959792 0.0402166 -1.42282
320 1 8.1908 2.29654 2.25728 0.419593 0.381393 0.346926
321 1 4.71056 8.81144 5.96168 0.529589 -0.742009 0.095933
322 1 0.372763 0.614615 6.97879 -0.1539 -0.391916 -0.838273
323 1 3.34719 5.38891 3.17521 -0.882074 -0.31565 -0.406412
324 1 5.52638 1.52228 0.463674 0.30456 -0.301909 -0.16154
325 1 4.98001 1.87523 4.95977 0.813382 0.0386657 -0.241149
326 1 7.72772 9.3864 7.26833 0.0203206 0.34901 -0.0717259
327 1 0.855466 6.95257 8.70136 0.248119 0.0650663 -0.88954
328 1 4.67759 5.34377 1.84618 -0.28442 0.465179 -0.159375
329 1 1.94229 3.51546 4.30823 -0.463939 -0.121724 0.427104
330 1 3.4491 2.6301 4.27425 -2.02045 -0.525612 0.453274
331 1 4.5482 3.76057 6.07322 0.1257 -0.334882 -0.399266
332 1 1.43036 4.08006 7.10352 -1.05869 -0.455602 -0.464788
333 1 6.54237 6.53114 0.914096 0.349537 -1.49981 -1.77708
334 1 3.57327 0.180083 7.52774 0.0734352 0.122463 -0.222192
335 1 3.72827 1.72929 0.909365 0.713854 -0.905368 1.43922
336 1 0.990379 0.479839 6.01567 0.267544 -0.718548 1.14921
337 1 8.80145 3.61273 0.0982227 -0.974051 -0.373493 0.208231
338 1 6.05797 2.08905 3.1752 0.192075 0.414198 0.353231
339 1 8.33305 8.59997 8.88584 0.00968933 0.368204 -0.25086
340 1 2.66035 4.90735 2.54687 1.49121 0.393761 0.0586834
341 1 1.35431 1.11706 0.204385 -0.660702 0.095723 -0.755937
342 1 3.64514 7.94852 8.35427 -0.58295 0.346853 -0.336201
343 1 2.17017 3.20439 2.72717 -0.418784 -0.655516 -0.216742
344 1 3.01437 0.897706 4.69469 0.524744 0.584027 -0.504757
345 1 6.91172 8.51656 4.28842 0.720203 0.279288 0.190902
346 1 0.643155 5.77777 6.94427 0.711269 0.393148 -0.386819
347 1 9.0706 4.06784 7.48065 -0.459406 -0.294716 0.545225
348 1 5.15876 3.07209 7.52411 -0.431603 -0.559499 -0.448631
349 1 3.97923 0.991368 1.79781 -1.68543 1.39563 0.523902
350 1 5.03351 3.60062 3.74351 -0.193591 -0.465975 0.969742
351 1 7.20943 9.09607 2.00638 -0.217858 0.408039 -0.199741
352 1 5.00615 5.18174 9.0656 0.426104 0.719651 0.152091
353 1 1.40233 1.14823 4.59491 0.59368 0.182242 -0.628729
354 1 2.72232 0.661162 8.207 -0.429746 -0.192695 -0.806083
355 1 8.82623 3.60954 6.40874 0.366834 0.574724 0.527647
356 1 0.466581 4.33903 0.601036 0.575657 -1.47207 -0.411175
357 1 5.59545 3.06603 1.16907 -1.43322 0.207933 -0.457429
358 1 1.02357 8.75159 8.41522 0.333294 -0.384563 -1.13832
359 1 3.29174 3.51822 1.18119 0.986174 0.637142 1.38718
360 1 5.9919 3.13862 5.6465 -0.877369 0.202869 0.687411
361 1 3.52185 1.79121 2.38299 -0.132118 -0.700815 0.617106
362 1 6.56555 3.30735 1.58181 -0.550764 -0.767173 -0.792588
363 1 8.19405 7.28923 2.01655 0.64988 0.560282 0.0795454
364 1 4.53832 1.22651 8.02622 -0.606132 -1.39104 -0.096187
365 1 1.08023 8.94022 1.71064 -0.250052 0.446725 -1.25876
366 1 6.72597 7.94817 5.2004 0.654643 -0.17227 -0.152362
367 1 7.93179 0.992524 4.79634 -0.354361 0.0634355 0.110424
368 1 2.23336 7.24647 1.41127 0.516533 0.813272 -0.606028
369 1 7.81997 2.44391 5.28514 0.187593 0.597019 0.838039
370 1 4.77965 1.26205 1.24387 0.859659 -0.680523 0.0135019
371 1 8.26836 0.896468 2.71757 0.522982 1.0697 -0.654618
372 1 5.03099 9.35139 0.25011 -0.0816338 0.0390648 0.0368304
373 1 7.89757 0.908882 6.79917 -0.72102 -0.259254 0.575645
374 1 6.85753 6.81264 4.00867 0.338504 -0.00287776 -0.696115
375 1 5.18972 5.82834 5.81538 -0.530067 -0.222195 0.130027
376 1 2.67781 1.68996 7.90002 0.79012 0.35678 -0.127133
377 1 2.70823 5.31827 8.15561 -1.17087 0.106257 0.0239618
378 1 8.19792 0.0586179 2.08774 0.493519 -0.490119 -0.757421
379 1 9.0984 3.45925 5.40671 0.0862547 -0.214789 0.1592
380 1 8.6972 7.27321 2.99085 0.577312 0.543117 0.545051
381 1 1.63747 5.33088 6.94535 -0.0702954 -0.423756 0.929825
382 1 6.68081 2.00545 2.06251 0.20733 0.147652 -0.455413
383 1 6.94787 2.54547 1.12841 0.379307 0.0463242 0.974261
384 1 7.12744 8.34845 1.17615 0.349786 0.654746 0.699565
385 1 4.94558 8.898 2.04048 0.351847 -1.11816 0.560248
386 1 0.366692 2.24119 1.045 1.19885 -0.176799 1.53041
387 1 7.46757 1.69135 2.68765 -0.311966 -0.00200374 -0.835594
388 1 4.85625 5.97149 8.35116 0.908063 0.478701 0.842067
389 1 7.44554 4.26354 6.19703 -0.016982 -1.01013 -0.11364
390 1 8.39838 4.50942 4.75089 0.418593 -1.38539 0.497244
391 1 4.6206 0.893325 0.272974 0.604796 -1.15101 -0.729331
392 1 2.2114 0.922342 3.96729 -1.22482 -0.226585 -0.538941
393 1 4.62846 0.0946009 7.67673 -0.537668 -0.53074 -0.194848
394 1 9.30568 4.52316 6.21771 0.726641 0.910702 -0.924992
395 1 8.08092 5.22084 8.85556 0.526929 0.442014 0.291736
396 1 2.99952 1.79687 5.17898 0.144638 0.191881 0.621064
397 1 7.01548 3.37236 5.22132 -0.165121 0.0660398 1.35752
398 1 7.48681 6.90317 1.32229 -1.05662 0.961956 -0.00949583
399 1 2.13989 1.57821 2.27265 0.015016 0.231462 -0.41332
400 1 6.84779 8.11675 2.27696 -0.288555 -0.228973 0.0598908
401 1 3.64013 1.78523 6.06173 -0.573456 -0.312378 -0.656968
402 1 7.44157 0.253984 5.38021 -0.238123 -0.374626 -0.0105518
403 1 0.767073 2.94557 1.65664 1.71551 0.12977 0.292318
404 1 5.19917 6.87901 2.61732 -0.764385 -0.227363 0.919617
405 1 4.34058 1.68092 6.99036 -0.263244 0.698317 -0.871822
406 1 2.07022 4.17027 5.13207 0.574118 -0.569119 1.20762
407 1 5.30697 8.36116 0.138305 0.818323 -0.241577 -0.280262
408 1 4.71603 2.72799 8.42197 -0.518736 -0.199727 0.631242
409 1 2.96374 1.29128 3.06043 0.555769 -0.725646 -0.0442636
410 1 0.56401 3.81477 6.75683 1.52822 1.02446 -1.40985
411 1 6.51707 8.98922 5.27297 0.163575 -1.75749 0.655281
412 1 5.76624 0.397174 3.73577 0.153305 -0.474323 0.141022
413 1 2.13873 7.81028 0.523286 -0.218179 0.278305 0.0345114
414 1 1.37083 7.44192 3.4418 -0.162563 0.423975 0.344538
415 1 1.38499 3.72306 1.21752 -0.503941 -0.534716 -0.701828
416 1 0.166253 8.76515 3.46701 -1.84584 0.014391 0.20599
417 1 1.38638 7.95 4.96432 -0.406295 -0.037529 0.363635
418 1 3.23816 0.52623 1.13621 0.584067 -0.996729 1.22831
419 1 7.60064 2.48085 3.30123 1.16328 -0.496749 -0.305781
420 1 0.0846446 1.77481 4.65052 0.537705 -0.418215 1.09061
421 1 7.94703 8.40539 2.15269 -0.532268 0.303121 0.0858007
422 1 3.07572 2.74976 5.72748 -0.863335 0.691075 0.41052
423 1 8.21148 7.68951 0.129271 0.269123 0.158258 1.42764
424 1 7.49223 8.31588 5.67241 -0.847945 0.330674 0.232678
425 1 1.58349 1.88574 5.28864 -0.877809 0.106562 -0.646625
426 1 9.00155 0.712718 8.49978 -0.476174 0.631562 0.99299
427 1 6.46819 5.92406 5.51926 0.519051 0.446223 0.389304
428 1 3.26835 2.90128 7.01678 0.220824 -0.351869 0.374047
429 1 4.73271 3.26839 0.509906 -0.734903 -0.530372 1.48228
430 1 2.41351 8.86193 6.11612 -0.975096 0.263469 -0.288807
431 1 9.07587 7.2173 7.66156 -0.435685 -0.638182 1.42549
432 1 6.27853 0.813077 7.17468 -1.20123 0.677522 0.231129
433 1 3.85312 2.21503 7.82297 -0.666326 -0.270394 -0.257106
434 1 4.89972 4.42476 2.35277 0.300773 0.199505 -1.01781
435 1 1.9735 0.671194 2.73207 0.668057 -0.105718 1.37109
436 1 2.06486 3.58259 9.08487 0.352485 0.777334 0.714417
437 1 8.2077 5.00965 7.81979 -0.0667813 -0.266682 -0.528827
438 1 1.62673 9.08648 0.0515061 0.23581 -0.51723 -0.959577
439 1 5.15716 6.18858 4.21566 1.59473 0.28435 0.0635643
440 1 0.497123 4.3877 2.78622 0.353041 0.0264601 -0.330976
441 1 9.23611 0.866663 2.12315 -0.40679 -0.565295 0.402035
442 1 4.85851 6.82638 0.821074 0.672551 0.707873 -0.779426
443 1 3.87138 6.80754 8.09131 -0.0937067 -0.292597 0.346227
444 1 7.85792 6.54222 4.28524 0.517004 -0.16822 0.345263
445 1 5.03832 0.437809 8.62882 0.854213 -0.488713 0.513174
446 1 7.43511 5.8428 2.2942 -0.00985929 0.0640734 -0.121846
447 1 1.03645 7.43701 0.506434 0.460033 0.166485 -0.681335
448 1 4.43831 7.62999 7.85894 1.09775 0.060613 -0.936477
449 1 2.2591 1.41635 8.84915 0.695175 0.0533977 0.484139
450 1 2.04735 9.11012 7.19333 -1.41413 -0.999401 0.85832
451 1 6.909 0.660565 8.71563 -0.825511 -0.0860543 -0.408848
452 1 5.6122 6.74851 8.35585 -0.109882 0.852717 -0.970858
453 1 5.40176 7.78468 8.4713 1.08591 0.787174 0.0438017
454 1 5.56488 6.52826 5.10691 -0.659271 0.870627 -0.292862
455 1 4.15843 5.45322 6.73 0.172787 -0.336322 0.0234904
456 1 0.986239 6.34141 2.33511 -0.915016 0.422756 0.335497
457 1 4.71148 4.24216 0.098677 0.287208 0.755476 0.277887
458 1 8.45834 7.37638 4.50113 -0.939866 0.173102 0.658334
459 1 2.82372 6.98225 2.27274 -0.543739 0.504596 0.770978
460 1 8.52781 2.57155 8.93204 -1.00372 0.95123 0.727376
461 1 8.99093 4.84728 3.29821 -0.538969 0.0685758 -0.176744
462 1 0.884673 6.43473 3.50639 -0.615061 0.111492 0.578655
463 1 2.15744 0.421639 9.11153 0.321642 -0.256931 0.48096
464 1 9.04043 6.11058 0.72554 -1.84264 0.91881 1.18221
465 1 1.67554 8.12191 2.15838 1.09833 0.244393 -0.551222
466 1 8.02003 7.90756 1.21002 0.782204 0.956757 1.03561
467 1 5.39763 1.27991 2.93275 0.557206 0.250819 -0.436933
468 1 6.6378 8.98145 2.93974 -0.692745 -0.953636 0.00178341
469 1 2.39267 2.12038 1.24938 0.386633 -0.432632 0.156862
470 1 7.00705 5.41824 4.80037 0.51677 -0.0770737 -0.69237
471 1 2.50638 8.69944 0.240538 0.290919 -1.08638 -1.06725
472 1 2.29537 7.05397 6.24452 1.02235 -0.389126 0.150226
473 1 8.96028 1.22829 6.7867 0.399643 1.30714 -0.0138661
474 1 6.64466 1.79018 8.50325 -0.299958 -0.0700144 -1.19645
475 1 4.60715 8.85087 8.61216 0.24443 -0.736577 0.379195
476 1 2.87996 5.43408 4.40849 -0.594568 0.399687 0.149776
477 1 8.21479 6.86144 7.99692 -0.265609 -0.153031 -0.225189
478 1 5.65772 9.16551 4.63904 -0.194599 0.0243607 -0.289899
479 1 7.41196 0.797761 2.10591 0.309591 -0.117125 0.310451
480 1 6.06634 6.94286 6.05965 0.606293 -0.891642 -0.308204
481 1 2.70963 4.39659 4.34593 -0.525524 -0.695246 0.811592
482 1 4.50671 6.30554 5.10039 -0.16742 -0.598633 1.29632
483 1 0.820688 5.03602 3.50663 0.410564 0.769351 0.0637634
484 1 0.264037 3.81679 9.03525 0.577988 -0.354159 -0.337764
485 1 6.65024 5.77899 7.36588 0.859302 0.363362 -0.244811
486 1 1.68 4.64318 2.95492 0.200912 0.132839 0.400121
487 1 0.478682 6.43908 4.48071 -0.627739 1.09036 -0.736898
488 1 6.69814 2.37325 5.55041 -0.246703 -0.747542 -0.481871
489 1 6.47923 8.58758 0.409694 0.0266268 -0.353779 -0.781954
490 1 5.51094 5.87897 2.07648 -1.15012 0.901315 0.514313
491 1 4.7139 5.22272 2.94919 -0.934703 -0.47536 0.686947
492 1 1.61047 8.97542 5.34603 -0.206193 0.474874 0.0972093
493 1 7.96003 4.4973 0.425634 0.659329 0.3159 -0.248886
494 1 4.26138 4.00825 3.15122 0.567035 -0.790016 0.335058
495 1 3.10469 8.31876 1.06297 -0.555676 0.471252 -0.677548
496 1 2.58157 0.0791235 5.33163 1.84142 -0.699439 -0.307281
497 1 6.36788 7.7093 6.92754 -0.112656 0.589052 0.321634
498 1 2.53365 1.09713 0.443856 -0.608322 -1.30383 -1.0234
499 1 3.70743 2.94628 2.3875 -0.646047 -0.554348 0.70851
500 1 6.61523 6.39434 8.18946 -0.760419 1.3039 0.908139
501 1 5.94023 4.21968 3.85451 -0.586574 -1.10662 -1.10431
502 1 7.96716 3.96116 3.9491 -0.0841685 0.527987 0.291127
503 1 3.60151 1.2095 7.5809 -0.80419 0.778315 -1.15792
504 1 2.91021 0.553293 2.23416 0.0609518 0.129092 -0.134688
505 1 7.83059 3.35298 0.439868 -0.186716 -1.11725 0.193221
506 1 5.57495 5.75604 7.67587 0.523114 0.058724 -0.787879
507 1 5.37323 7.63544 7.34425 1.62496 -1.86711 0.125803
508 1 0.895985 8.13769 3.98511 0.636745 -0.135354 0.615293
509 1 3.39799 2.54311 1.43153 0.164786 0.0645383 -0.186352
510 1 5.64042 4.80679 0.537877 0.688871 -0.532777 0.198381
511 1 6.24041 1.85029 7.53816 -1.10853 -1.18233 0.0201652
512 1 1.90595 6.29266 1.75788 0.00604643 -0.436098 -0.347989
513 1 4.7316 7.47517 1.61757 1.06152 1.1122 -0.588726