ITEM: TIMESTEP
260
ITEM: NUMBER OF ATOMS
1000
ITEM: BOX BOUNDS pp pp pp
0.0000000000000000e+00 9.4000000000000004e+00
0.0000000000000000e+00 9.4000000000000004e+00
0.0000000000000000e+00 9.4000000000000004e+00
ITEM: ATOMS id type x y z vx vy vz
1 1 4.73101 0.198433 1.20058 1.02743 -0.937809 -0.410824
2 1 7.91817 2.94974 7.91872 1.1419 -0.953491 -1.02146
3 1 0.414134 3.25395 3.69642 0.123104 -0.494731 0.377254
4 1 0.661896 8.01492 7.02214 -0.172601 0.45109 0.463778
5 1 5.49508 2.14167 5.84504 0.223907 -0.00640906 -0.527455
6 1 7.14346 7.43799 5.90765 1.00747 0.373604 0.548231
7 1 1.12012 8.46216 0.774275 0.10463 0.258365 -0.179679
8 1 2.19957 2.22856 6.22938 0.0202923 0.576393 1.11346
9 1 1.3156 2.71279 4.84641 0.528851 -0.675929 -0.851758
10 1 2.86731 9.0432 1.64568 0.702252 -1.11425 1.04061
11 1 8.47164 6.85453 0.73695 0.311913 0.517649 0.568575
12 1 6.91862 3.03136 2.6412 1.32826 0.182908 0.894925
13 1 8.17417 1.88418 6.21102 0.0926935 0.867216 0.354895
14 1 3.62349 6.27865 1.59817 0.24919 0.240812 -1.0212
15 1 7.82794 3.06687 1.54919 0.228762 -0.957341 -0.144842
16 1 1.21216 3.08001 8.49817 0.82015 -0.115836 -0.188866
17 1 8.06025 4.35396 6.81991 -0.314868 1.89407 -0.303852
18 1 0.290011 3.48368 2.50935 0.285573 0.298373 -0.387757
19 1 6.17279 3.07884 9.01138 -1.69506 0.145466 -0.377462
20 1 4.29388 3.37585 7.03175 -0.16828 -0.0496596 -0.402604
21 1 1.73443 5.0743 5.77494 -0.727064 -0.254492 -0.104745
22 1 2.95497 3.36223 4.76461 -0.74269 -1.70028 -0.532261
23 1 5.30068 3.71957 8.68449 0.998085 1.21512 -0.969326
24 1 2.33002 4.08573 8.2229 0.0140466 -1.16477 -0.750482
25 1 6.28793 2.78246 7.55868 -0.158648 -0.186733 1.02823
26 1 2.13247 3.00569 5.45158 0.467362 -0.334299 -0.293156
27 1 8.23811 0.867154 7.74404 -0.124067 0.201619 1.00331
28 1 4.51519 6.40655 3.37947 -0.0409506 -0.347189 -1.21028
29 1 2.99885 0.0776801 9.37699 -1.20002 0.270089 0.589692
30 1 7.22117 2.83593 4.18848 -0.204692 0.298625 0.305683
31 1 8.75942 3.06825 1.1271 0.238397 -0.68102 0.53206
32 1 4.41732 0.35652 5.87677 0.261856 0.22675 -0.309157
33 1 1.84333 7.27181 8.48308 -0.0754579 -0.698793 0.0620729
34 1 3.61481 7.33452 1.60181 0.253915 0.227397 -0.687437
35 1 9.25645 0.535585 6.14103 0.0473026 -1.21869 -0.606226
36 1 6.50722 6.34301 1.94127 1.0981 -0.571283 -0.0808155
37 1 8.52815 1.5977 9.31642 0.19518 0.140657 -0.305011
38 1 1.08091 1.52062 2.9483 0.756266 0.344485 1.40135
39 1 0.351675 0.982257 4.35308 0.625021 -0.0210976 0.362848
40 1 2.39535 4.11004 0.57781 1.161 -1.72629 -0.721805
41 1 6.14284 9.2952 6.10628 -0.627628 0.593335 -0.542019
42 1 1.32523 1.9555 8.81412 -0.360136 0.718167 -0.550705
43 1 1.92251 2.95755 1.67823 0.596327 -0.0144754 -0.222552
44 1 7.303 1.39051 5.6446 -0.200733 -0.107533 0.253486
45 1 6.2126 2.33097 6.59578 1.05234 -0.626115 -0.515028
46 1 7.85568 6.52534 3.22721 0.39113 -0.218247 0.141724
47 1 6.17111 5.69573 0.256467 -0.546838 -0.285258 0.0438904
48 1 7.70106 7.56191 3.83313 0.28992 0.338776 -0.508172
49 1 3.47578 4.53602 6.73621 0.551106 -0.480245 0.195485
50 1 8.6721 8.04693 3.64004 -0.0890038 1.46151 -1.15074
51 1 6.31494 7.35012 2.48524 -0.12222 1.1111 0.425607
52 1 1.22345 3.57283 0.159368 -0.760962 0.501424 0.700846
53 1 5.44656 2.99403 3.16984 0.683412 0.673912 0.283245
54 1 0.139727 6.07875 5.1376 0.286838 -0.264565 -0.417277
55 1 8.90697 5.21531 5.31235 -0.651258 0.0615028 1.01695
56 1 0.152523 4.37364 4.96182 0.731209 -0.158022 -1.66599
57 1 0.12399 8.85563 6.47551 -0.641505 -1.30583 -0.135531
58 1 5.01347 3.94798 1.16081 0.758865 0.147134 -0.956201
59 1 0.40268 7.5 4.72111 -0.53132 0.348629 -0.610663
60 1 0.60596 5.3157 0.573365 0.159402 -0.12053 0.118796
61 1 5.64518 8.98014 8.71677 -1.51898 1.25744 1.10894
62 1 0.301761 0.279161 1.5848 0.396579 0.244463 0.098354
63 1 7.31226 7.05184 7.52851 -0.393779 -1.41624 0.847386
64 1 3.3873 5.26052 9.01736 0.0181703 0.245282 1.15207
65 1 2.31916 2.47002 8.67164 0.210016 0.436394 -0.759272
66 1 6.48345 4.91559 9.09339 -0.0607084 -0.0688365 -0.204624
67 1 6.35537 5.44757 2.38989 0.480497 -0.588525 -0.50757
68 1 4.31403 5.07595 0.143677 -0.210561 0.0824058 0.107597
69 1 2.48716 2.9501 0.702762 -0.149238 0.862409 0.422956
70 1 0.0278152 1.55749 3.49152 -0.870024 -0.0286038 0.530457
71 1 7.33463 5.9341 1.3036 0.157452 -0.105111 -0.224754
72 1 7.07246 4.87717 1.66791 0.149758 1.85035 0.454743
73 1 2.04838 8.41898 1.29865 -0.538249 0.898918 -0.36516
74 1 4.73772 5.14184 7.76856 -1.2303 1.26203 -0.156997
75 1 8.34314 9.2614 5.01588 0.30074 0.0105101 0.193664
76 1 6.86627 7.95655 3.30879 -0.505649 -0.0812241 0.54672
77 1 4.89515 3.94768 7.77622 0.386429 0.532325 0.534446
78 1 2.42123 4.86226 9.08054 0.463026 -0.159526 -0.527755
79 1 7.74414 7.74569 2.80396 -1.03864 0.221473 1.11069
80 1 0.125124 6.64489 2.84322 0.128344 0.708505 -0.135044
81 1 5.71637 0.361059 2.57996 0.483796 -0.089362 0.0111378
82 1 9.09368 3.13643 7.41065 -1.08043 -1.06561 0.127361
83 1 3.50605 8.68624 4.46058 -0.407026 0.262474 0.845897
84 1 0.858411 4.82668 7.4459 0.176635 0.696606 1.27122
85 1 1.96298 2.3018 3.11449 0.184555 -0.365673 -0.600919
86 1 3.44039 4.24332 8.6504 -0.419626 1.27836 0.00756389
87 1 9.06566 4.44752 2.2475 0.707607 -0.631773 0.390002
88 1 0.550224 1.81326 1.92744 -1.53769 -0.274442 -0.544108
89 1 4.3484 2.17706 1.7431 -0.37062 0.183999 0.553865
90 1 7.33597 6.96721 2.39475 0.422082 0.383338 -0.422194
91 1 4.49546 2.69551 3.45417 0.107658 -0.43958 0.559441
92 1 0.652898 1.21389 8.52551 -0.675815 0.0141857 -0.249863
93 1 4.02799 6.05569 2.51708 -0.125015 -0.0617063 -0.175464
94 1 4.88747 8.55043 0.942643 0.941659 -0.624475 -0.409118
95 1 6.14538 6.09328 4.14454 -0.0633972 0.0573215 -0.157749
96 1 3.99875 8.55652 7.58989 0.888884 0.693588 0.593272
97 1 5.57127 4.76984 2.82858 -0.346118 -0.763009 -1.04092
98 1 8.42278 8.62485 2.79646 -0.912578 -1.02292 -1.09656
99 1 1.08888 0.0274764 2.80594 1.09164 -0.225607 -0.0178726
100 1 6.73467 0.136162 7.79994 -0.263635 -1.23902 -0.0991815
101 1 8.75952 5.23659 0.84055 -0.0937701 0.364807 0.185123
102 1 7.71953 6.50052 8.46092 -0.187186 0.408317 0.158683
103 1 4.79003 0.504014 2.26471 -0.729353 0.416597 0.19559
104 1 8.7777 0.0583615 1.03683 -0.709583 -0.121934 -0.187427
105 1 7.48561 8.71736 8.18715 0.925796 0.332416 0.0721065
106 1 3.75945 3.24617 7.91601 -0.777588 0.354032 -0.935277
107 1 1.52716 7.01523 1.44434 -0.144902 0.6909 0.474172
108 1 9.12108 5.58374 9.15402 0.838202 -0.962136 0.600478
109 1 5.39904 1.63127 6.74267 -0.76828 0.248386 1.0592
110 1 2.78248 7.85157 6.68178 -0.372356 0.936236 -1.3128
111 1 2.37478 0.0937118 0.884966 -0.297775 0.192609 -1.51239
112 1 1.39733 5.99894 5.17292 0.192396 -0.708132 -1.26036
113 1 9.31954 8.97571 7.50891 -0.964131 -0.453937 -0.200723
114 1 2.27205 6.46426 4.71902 0.429483 0.799158 -0.0604799
115 1 5.93439 8.55234 7.03232 0.247595 -0.193305 0.160458
116 1 2.4384 7.74788 2.98895 0.907865 1.57148 -0.756897
117 1 7.36994 8.21318 9.29655 0.299525 0.986563 -1.00625
118 1 0.399322 0.303618 8.14166 1.92682 -0.0581148 0.609702
119 1 7.61071 0.112441 2.94143 -0.260721 -0.676514 1.33227
120 1 7.3114 6.62349 0.124619 -0.675456 0.0976225 -0.0931421
121 1 5.97891 5.80074 8.62471 0.597226 -0.107543 1.05261
122 1 0.0714328 8.76457 0.953988 0.486767 0.147846 0.448346
123 1 1.33175 2.47871 6.89552 -0.0515592 -0.310581 -0.156115
124 1 3.536 6.73411 3.35317 -0.0433242 0.533091 -1.29489
125 1 0.748514 2.20598 4.10921 -0.0480491 0.674222 0.304105
126 1 0.347315 6.77896 6.8229 0.52527 0.228241 0.336253
127 1 1.66441 0.199377 4.62456 -1.15751 0.227461 -0.516935
128 1 4.80242 2.86725 5.51563 0.560063 0.636176 -1.14953
129 1 4.85084 4.92551 1.01354 0.930025 1.13879 0.942532
130 1 8.2705 0.76921 5.76059 -0.0524506 1.36545 1.23929
131 1 9.06856 0.82001 5.09928 0.608423 -0.427389 -0.849503
132 1 6.62279 3.60776 4.10431 1.27065 -0.241049 -1.05135
133 1 3.71226 4.00069 4.36214 0.979325 0.0401872 0.552901
134 1 6.09229 2.30384 0.452715 0.590473 -0.434559 0.863697
135 1 8.35062 1.72407 5.15735 0.0545528 0.43428 0.577175
136 1 3.85009 5.79938 4.01731 -1.21173 -0.0921898 -0.122405
137 1 2.75179 2.71 7.71151 -0.33653 -0.708729 -0.03747
138 1 1.52308 7.06966 5.55975 0.0737755 -0.680831 1.13135
139 1 0.668135 0.318781 5.06889 -0.566246 1.44327 0.410727
140 1 1.35561 3.7856 3.39476 1.0842 0.290271 1.4853
141 1 2.47354 3.202 6.53694 0.0976776 0.576618 0.186236
142 1 3.49643 3.59337 6.24062 0.915626 0.656084 0.619022
143 1 3.1338 6.23671 8.57377 -0.737027 0.0339127 -0.990913
144 1 8.98064 8.49627 1.90687 -0.397038 0.520188 -0.40284
145 1 0.3502 6.46157 7.83068 0.0349781 0.0303031 0.424159
146 1 5.77933 9.05222 1.10412 -0.151405 -0.612467 -1.05774
147 1 1.24833 7.33267 6.5598 0.124658 0.224002 -0.861468
148 1 8.91256 4.64752 8.52587 -0.31206 0.452588 0.254265
149 1 1.85674 6.77367 2.89923 0.15074 -0.445108 -0.381719
150 1 1.0344 7.24778 7.76626 0.118731 0.310073 -1.77649
151 1 3.88214 8.29987 5.4361 0.491596 1.07396 0.279117
152 1 4.30068 9.04966 2.735 -0.490618 -0.35604 -1.10813
153 1 8.97097 2.69447 2.95018 0.105588 1.18046 -0.952566
154 1 5.98537 6.65521 7.24855 0.354792 -1.12276 -0.0127565
155 1 5.20986 1.13872 5.64277 0.236483 -0.747648 -1.0311
156 1 3.79365 0.550867 2.83312 -0.901343 0.311043 0.0617795
157 1 8.46445 9.35785 8.12904 0.779796 0.483444 1.49921
158 1 0.643144 8.65255 4.94473 -0.673042 -0.274278 -0.247727
159 1 6.2515 7.70263 4.11407 0.927702 -0.810736 0.675909
160 1 9.00741 1.17732 0.916295 0.401231 0.198862 0.908496
161 1 2.4475 5.1661 0.729796 0.894194 0.709314 1.06916
162 1 7.31695 4.57388 8.44046 -0.0593126 0.283425 -0.329909
163 1 6.6709 5.25777 8.11033 -0.505034 -0.465093 -1.39133
164 1 1.78725 5.66111 2.81364 -0.743436 -0.0458077 0.0990753
165 1 3.60218 1.44054 8.7223 0.175368 0.895416 0.262638
166 1 8.22475 5.14855 3.9958 0.288887 -0.155179 0.409694
167 1 0.541454 8.90204 0.0408103 -0.95455 -0.972035 -0.424319
168 1 7.02526 4.9613 0.617821 -0.668748 -1.56162 0.943145
169 1 0.15339 5.34285 8.07399 -1.11644 0.876433 0.516776
170 1 2.46828 7.20629 4.02155 -0.690927 0.751495 -0.00105915
171 1 1.08528 5.32088 2.12894 0.00906577 0.050452 0.586112
172 1 6.33135 6.55663 9.16562 -0.160225 -0.00302828 -0.061685
173 1 6.05248 8.93113 2.11642 -0.725024 0.288256 -0.909503
174 1 1.88386 3.28292 7.40072 -1.21651 0.527199 1.00968
175 1 4.00124 9.34246 0.0993642 -0.659562 1.06712 -0.591862
176 1 3.46026 7.69104 3.82243 0.340621 -0.852811 0.342352
177 1 0.976255 0.412963 9.10269 0.114967 0.412042 0.672061
178 1 4.20163 6.2138 6.08889 0.68464 0.264597 0.142122
179 1 7.13143 4.13855 9.35518 1.08795 -1.41028 0.604752
180 1 4.53949 7.24947 6.71493 -1.05736 -0.543833 1.07774
181 1 7.81721 5.67248 0.350895 -0.47273 -0.544314 -0.621663
182 1 5.62103 7.99003 2.06341 0.218689 1.12037 1.22541
183 1 4.65533 6.99553 8.65194 -0.164877 0.75771 -0.74111
184 1 8.10037 6.59701 6.76827 -0.166891 0.268907 0.0265491
185 1 7.80236 1.89076 4.15499 -1.29311 0.64431 0.740659
186 1 7.6594 7.33132 4.93807 0.861736 -0.314843 -0.449438
187 1 8.10995 4.41922 1.71371 -0.476398 1.41114 -0.318946
188 1 9.26729 6.71509 8.64615 0.0559546 -0.0426762 0.211903
189 1 7.87667 3.53159 4.79057 -0.378817 -1.00739 1.29153
190 1 8.91165 3.81697 3.2905 -0.75668 -2.02212 -0.303318
191 1 6.96207 2.65819 8.4167 0.0948702 0.299564 -0.352829
192 1 8.15356 5.38623 6.77657 -0.0585859 0.322885 0.696032
193 1 4.09267 7.13327 5.41979 -0.311703 -0.301645 0.919636
194 1 5.35207 1.02637 7.56325 -0.424716 0.152595 -0.149662
195 1 0.44311 8.15604 8.00268 -1.42707 -1.03172 -0.499245
196 1 5.7149 6.99281 1.65747 0.42388 0.766816 -1.53782
197 1 3.92166 3.32948 5.28697 -1.30234 0.116802 0.218738
198 1 0.99417 4.6933 6.43954 -0.242363 -0.764599 -0.41719
199 1 8.34199 5.85982 5.87391 0.804452 -0.936963 -1.25171
200 1 4.78337 7.853 5.28192 -1.12181 0.218627 -1.0171
201 1 0.223838 3.29208 0.593438 0.673721 -0.536959 0.937256
202 1 9.08316 3.51687 4.35158 -0.874469 -1.07012 -1.55223
203 1 9.39231 5.65373 6.2044 0.686963 0.407578 0.423515
204 1 6.99361 1.86393 4.7203 -1.80192 -1.77983 0.108342
205 1 1.25769 9.0121 6.54295 -0.255405 -0.0852506 -0.377083
206 1 4.9059 9.19729 3.92407 -0.126847 -0.991376 0.533827
207 1 7.28343 4.93059 7.32734 0.338374 -0.343011 0.0742683
208 1 1.59958 3.86447 6.12759 -0.724195 0.308095 0.319676
209 1 6.69864 7.46706 1.47043 -0.520608 0.756454 0.683326
210 1 1.45284 5.34973 8.84337 -0.0427978 0.317386 -0.138292
211 1 3.79674 2.2644 5.13286 0.0631632 0.0356814 0.62073
212 1 3.77957 4.02035 1.86392 0.171669 -0.0342561 -1.63449
213 1 4.01372 2.70444 6.0846 -0.518722 -0.44804 0.258571
214 1 0.88691 6.45061 0.370629 0.402329 0.842907 -0.570054
215 1 7.06889 7.27348 8.81763 -0.61826 -0.340818 0.372086
216 1 3.68239 2.60117 8.80936 -0.671756 1.30347 0.668499
217 1 5.64575 1.08455 1.91608 -0.0421321 0.690001 0.817596
218 1 0.15723 3.03619 8.33708 0.722361 0.572469 -0.646832
219 1 4.744 2.20814 0.736942 -0.24021 0.308148 -0.122887
220 1 8.66491 3.52836 8.35979 -0.68672 0.230418 -0.0132627
221 1 6.43821 2.80192 3.50185 -0.0687524 -0.845108 -1.4466
222 1 5.29341 5.16591 6.73019 -0.160548 -0.303965 0.15388
223 1 8.59558 5.30106 1.93594 0.370781 0.3944 -0.694002
224 1 5.70028 7.77401 0.913451 0.817063 0.181979 0.0595172
225 1 2.68452 1.80331 3.78413 -0.926875 -0.905499 0.249366
226 1 8.21683 7.49802 6.12342 -0.987178 -1.82743 -0.898381
227 1 3.009 4.04524 2.56638 -1.05079 1.3254 0.777341
228 1 8.624 8.31319 7.90905 -0.218418 0.120182 0.9259
229 1 3.17238 7.45389 0.3751 -0.837645 1.40742 -0.0979725
230 1 3.49774 0.565137 6.76904 0.877173 -0.922237 1.28095
231 1 3.6872 7.47952 7.31417 0.673794 -0.420996 -0.236349
232 1 1.58755 8.2269 7.90596 -0.464721 -0.158457 1.33409
233 1 7.84797 7.6708 8.2636 -0.238687 -1.20202 0.0986975
234 1 5.24774 2.65221 9.27628 0.405902 0.776606 -0.175169
235 1 0.952139 5.29715 4.54781 -0.270998 0.503831 0.356086
236 1 7.34465 5.84274 6.23459 0.586706 0.761669 -0.483791
237 1 7.51486 3.34068 6.93184 -0.223196 0.260367 0.917948
238 1 4.22586 1.79703 0.00711078 -0.0604493 0.915682 -0.798362
239 1 9.0126 4.30954 1.20753 0.940286 0.882027 -0.834957
240 1 4.62665 8.94211 4.86423 1.11059 -0.821054 -0.76565
241 1 5.54069 6.07758 3.20512 1.39319 -0.433346 -0.688723
242 1 8.04201 3.27908 2.92653 0.343046 -1.11712 -0.514959
243 1 1.13067 0.85471 2.02391 0.504139 0.0838986 0.127711
244 1 7.86376 3.99843 7.73905 0.949411 0.331104 0.709275
245 1 7.13758 4.95458 2.77087 -0.358987 -0.79001 0.549066
246 1 2.51477 6.91446 9.27827 1.44603 0.286778 0.591991
247 1 1.33214 2.04545 1.37941 -0.580709 -0.0345473 0.546461
248 1 9.29379 8.72956 8.58496 0.113787 -0.349434 -0.122997
249 1 1.49548 7.15824 4.50835 -0.551172 1.4208 0.0517319
250 1 2.17528 8.88373 2.54124 0.263409 0.578784 0.59213
251 1 2.09266 7.32322 7.41441 0.329727 -0.95541 0.616536
252 1 3.64519 3.35706 3.51529 -0.495895 -0.40799 0.160566
253 1 0.795302 6.20967 6.01232 1.19618 -0.785443 1.13903
254 1 5.28802 1.40493 4.1455 -0.963306 0.87031 -1.95622
255 1 8.93704 8.10804 0.210793 -0.263645 0.212981 -0.650511
256 1 8.90512 7.68309 8.6407 0.735822 -0.276562 -0.391753
257 1 4.70955 0.622732 4.64934 -0.601749 0.137838 0.428977
258 1 4.18335 1.60142 2.92411 -0.377933 1.8405 1.03593
259 1 2.84193 5.65062 1.4661 -0.0808901 -0.157655 -0.371859
260 1 5.125 8.67932 7.76649 0.0774138 -0.336044 -0.0336412
261 1 4.98475 1.58357 8.77852 0.632918 0.0831917 -0.759458
262 1 3.3117 4.50497 3.4612 1.30277 1.1701 -0.083887
263 1 5.27182 4.08383 5.38061 -0.808252 -0.714209 0.525226
264 1 6.03998 2.67853 2.37968 -0.162526 0.0180225 -0.284474
265 1 7.37987 5.71709 3.83494 -0.656414 -0.144355 0.0122283
266 1 8.47113 6.31067 2.40039 -0.745523 -0.15989 0.157543
267 1 3.59107 8.3686 0.0572955 0.718941 0.227842 0.210228
268 1 5.85072 3.29407 6.75792 -0.501901 -1.13354 -0.815048
269 1 8.31247 6.02592 1.31874 1.16559 -0.0430576 -0.0476678
270 1 8.05987 3.23134 5.94513 -0.584222 -0.673871 0.145922
271 1 2.83653 0.280264 3.24729 1.36094 0.528157 1.01936
272 1 6.28485 4.02681 5.78965 0.533777 -0.594795 -0.470555
273 1 8.78458 6.02598 3.41262 0.333273 -0.00760012 0.339111
274 1 6.55177 3.27611 0.579008 -0.579388 -0.313792 -0.103039
275 1 2.66515 8.25062 7.82363 0.0478651 0.155844 0.571015
276 1 5.50585 7.24425 9.29422 -1.79758 -1.14473 -0.983813
277 1 6.05416 4.53818 4.88934 -0.20896 -0.715786 0.934195
278 1 1.22408 4.88953 1.18362 -0.682536 -0.256057 -1.10957
279 1 9.38123 7.18195 0.247124 -0.0339245 -0.988138 1.64116
280 1 5.72589 0.0978069 7.74906 -0.502995 -0.198818 0.936342
281 1 6.12795 6.98377 3.47103 0.304585 0.761471 -0.423616
282 1 3.25754 6.54704 4.32271 -0.311395 -0.104497 -0.696033
283 1 8.98511 6.64021 6.15715 0.681345 -0.877006 -1.03176
284 1 3.80135 0.496477 8.6652 0.14305 0.344624 0.545757
285 1 4.53583 4.57468 8.60695 1.42301 1.35336 -0.638067
286 1 2.58842 0.779987 7.19821 -1.48486 0.123421 0.746551
287 1 8.62598 3.4581 2.12298 0.760113 -0.0920199 0.237672
288 1 3.8881 0.0381367 1.88532 -0.788516 -0.154806 0.0533834
289 1 6.42058 4.3381 2.25706 -1.12671 -0.143935 -0.509599
290 1 2.35451 5.12961 3.56835 1.55428 -0.45404 0.00841526
291 1 1.35584 0.63037 7.07037 -0.877546 -0.42678 0.215372
292 1 1.95131 5.17204 4.7944 -0.51622 -1.37783 0.66588
293 1 3.40889 7.62502 4.79083 -0.0800976 0.37639 -1.02249
294 1 3.75451 6.36441 7.07005 0.00228621 0.458351 -0.925498
295 1 3.57703 6.04759 5.20944 0.932638 -0.776588 0.327958
296 1 5.34653 3.33938 4.67436 -0.509614 -0.233793 0.626267
297 1 4.19984 3.47949 8.9964 1.11134 0.168927 1.07223
298 1 7.93541 2.41398 0.642563 -0.397567 -0.00242313 -0.0880755
299 1 0.705339 7.90388 1.50329 -0.755169 0.787747 1.45833
300 1 6.14677 1.58666 1.155 0.297803 -1.23512 -0.728889
301 1 0.664614 2.11797 7.96575 0.520841 -0.325787 -0.145741
302 1 6.63211 8.30264 6.14272 -2.24165 0.459016 -0.715528
303 1 4.61508 4.41613 6.84119 0.360975 0.723544 0.623535
304 1 6.48516 1.24499 0.166062 0.519225 -0.64129 0.0576434
305 1 1.48969 4.60839 0.235286 0.0896038 -0.0252063 -0.0789823
306 1 8.70282 0.229851 6.9737 -0.401862 1.38371 0.335201
307 1 4.73655 6.50922 1.68347 -1.26296 -0.748809 -0.179706
308 1 6.21177 8.85623 3.76401 -0.963644 -0.328722 -1.64987
309 1 3.53853 5.05142 4.94153 -0.243553 0.384519 -0.254289
310 1 9.14059 2.46076 3.9996 1.47294 -0.118125 1.50454
311 1 5.63335 2.33357 8.27586 0.621285 -0.433102 -0.645165
312 1 4.289 7.04192 2.49072 -0.717362 0.87034 0.844784
313 1 9.09255 7.6556 1.17053 0.936284 0.967709 0.271848
314 1 5.60789 4.71285 8.25957 -0.459166 0.0501814 0.830679
315 1 6.03515 5.96055 6.46042 -0.86076 0.731106 0.865378
316 1 1.28103 8.41557 3.12646 0.0556831 0.814163 0.132593
317 1 3.71279 2.86211 0.61778 0.720308 1.26576 -0.913439
318 1 0.352661 2.84535 5.33651 -1.66176 -0.707129 0.0857431
319 1 7.61678 8.26491 6.54023 -2.00918 -1.05968 0.136925
320 1 8.16588 2.35433 2.31235 0.0841679 0.216529 0.795543
321 1 4.73545 8.63148 5.95495 -0.379416 0.142054 0.928349
322 1 0.353729 0.540822 7.06013 0.187028 -0.528328 -0.380011
323 1 3.31882 5.5415 3.22763 0.151752 -0.16115 -0.24302
324 1 5.47441 1.51517 0.28276 0.424943 -0.0986899 -0.199646
325 1 4.74907 1.9098 4.9856 -0.771682 -0.333013 0.0329321
326 1 7.72013 9.39752 7.35596 -0.111667 0.0925712 0.849025
327 1 0.865978 7.05099 8.89907 -0.269429 0.363491 0.495854
328 1 4.67667 5.47474 1.87505 0.253858 0.00857226 0.607037
329 1 1.89299 3.56163 4.51902 -0.869539 -0.555631 0.827172
330 1 3.42944 2.50245 4.19698 0.874206 -0.536933 0.0504439
331 1 4.58749 3.68864 6.10892 -0.0908325 -0.460649 -0.29093
332 1 1.55085 4.16693 7.16955 -0.264178 0.161042 -0.141683
333 1 6.45488 6.5695 0.873028 -0.474908 -1.35169 -0.207536
334 1 3.55952 0.115633 7.66476 1.49603 -0.698427 1.85136
335 1 3.68276 1.68439 0.968094 -0.00205125 0.450396 0.92016
336 1 0.867352 0.45013 6.10833 0.380842 -0.249241 0.264784
337 1 8.73036 3.59347 0.241207 0.765918 0.194217 -1.02098
338 1 5.76384 1.99958 3.24809 -0.513985 -0.0319732 -0.456353
339 1 8.25705 8.55612 8.80914 -0.224596 -0.0400723 -1.13855
340 1 2.77376 5.08306 2.50533 0.98108 -1.57725 0.834243
341 1 1.43751 1.17401 0.245552 0.0218763 -1.12296 -0.5407
342 1 3.61547 8.00851 8.44436 0.0591483 0.606307 0.224473
343 1 2.20355 3.32092 2.75893 0.124521 -0.92809 0.458131
344 1 3.05748 0.871959 4.57659 0.421515 0.783912 0.756436
345 1 7.06375 8.43439 4.25579 -0.983674 -0.814338 -1.07836
346 1 0.602966 5.73916 6.97827 0.837243 -0.456658 0.858738
347 1 8.95231 4.12685 7.61146 -0.0299649 0.855012 0.171258
348 1 5.25572 3.00872 7.53454 -0.017462 1.25314 0.580401
349 1 3.96048 1.10417 1.88978 1.0176 0.654215 -0.0124681
350 1 4.76872 3.72409 3.69178 0.251602 -0.643989 -1.11035
351 1 7.11459 9.16106 1.96671 -0.985856 0.699823 0.699474
352 1 5.21534 5.27726 9.08956 0.569792 1.2249 -1.48085
353 1 1.27944 1.12724 4.65956 0.383296 -0.376746 -0.724724
354 1 2.75398 0.533182 8.26662 1.95209 0.00874507 0.57719
355 1 8.97498 3.6088 6.5708 0.794157 0.45005 -0.313138
356 1 0.501242 4.3018 0.640208 1.09295 -1.65428 -0.744679
357 1 5.52852 2.9902 1.07007 1.12833 -0.121223 0.781529
358 1 1.03849 8.84605 8.56872 0.601783 0.702219 0.472647
359 1 3.15175 3.60714 1.18759 -0.139782 0.568755 1.90473
360 1 5.87206 3.01814 5.5701 -0.192693 -0.0636527 0.463953
361 1 3.40481 1.88033 2.17259 -0.333085 0.539967 0.446557
362 1 6.53675 3.28759 1.70286 -0.200411 0.259575 0.3537
363 1 8.30337 7.21795 1.85241 0.151447 -0.7923 -1.18963
364 1 4.41378 1.28266 8.00915 -0.2104 -0.860853 0.00752411
365 1 1.24289 8.82646 1.90326 0.294799 -0.29018 -0.559123
366 1 6.7266 7.95888 5.0925 -0.857182 0.035498 -0.585705
367 1 7.7652 0.971803 4.71998 0.674599 -0.382159 -0.527065
368 1 2.47556 7.32548 1.4156 -0.360419 0.843051 -0.406248
369 1 7.59793 2.46122 5.38865 -0.508565 -1.76581 0.0510885
370 1 4.82345 1.32788 1.2461 -0.917482 -0.946534 0.937424
371 1 8.18927 0.868497 2.72952 1.04406 -0.700784 -1.14381
372 1 5.05854 9.20076 0.185804 0.302174 0.642611 0.0264021
373 1 7.86442 0.863918 6.76611 0.735317 0.404569 -1.14153
374 1 6.93049 6.86564 3.97664 -0.57216 -1.15983 0.188381
375 1 5.17269 5.83285 5.73364 0.622266 0.983507 -1.23075
376 1 2.58323 1.61208 7.94726 -0.165182 1.99025 1.56866
377 1 2.78217 5.25839 8.20901 0.270909 -0.0784592 0.383176
378 1 8.29571 9.33191 2.03109 0.239754 1.09504 0.265009
379 1 8.88865 3.50968 5.35751 0.362618 -0.492867 -0.931436
380 1 8.61517 7.24243 2.94991 0.165995 -0.149961 1.6302
381 1 1.63701 5.33923 6.95076 -0.152058 -0.278179 -0.325017
382 1 6.64341 2.02006 1.92588 -0.446074 0.323502 0.68659
383 1 7.04669 2.52937 1.12689 -0.05421 -0.166494 -0.541448
384 1 7.2369 8.25881 1.17722 0.265546 -0.435844 0.423859
385 1 5.04718 8.9485 1.96795 -0.08401 0.60284 -1.4013
386 1 0.396735 2.18477 0.897051 -0.0167021 0.279968 0.0323654
387 1 7.39421 1.67387 2.59685 0.721612 0.545475 -0.52607
388 1 4.89132 6.04031 8.37957 0.477797 0.524474 0.223971
389 1 7.3314 4.01927 5.95413 0.846588 -0.684383 0.00471565
390 1 8.48838 4.45774 4.72157 1.13106 0.148949 0.545461
391 1 4.70535 0.818257 0.333381 0.254845 0.649497 -0.693019
392 1 2.2228 0.923858 4.04 0.767487 -0.00628296 0.0468673
393 1 4.62523 0.219269 7.74236 1.69415 0.350573 1.38676
394 1 0.0201789 4.4407 6.08095 -0.181074 -0.417964 -0.153999
395 1 8.08191 5.17376 8.91786 0.23479 0.301832 0.343407
396 1 2.79862 1.86706 5.24755 0.0625607 0.399964 0.44353
397 1 6.83066 3.24196 5.17151 -0.0502098 -0.266123 -0.725109
398 1 7.4356 6.88652 1.15284 -0.748355 0.11971 0.394531
399 1 2.00495 1.6275 2.23107 -1.48164 -0.0750035 0.61832
400 1 6.99506 8.12109 2.25299 0.281653 -1.09492 2.01593
401 1 3.45121 1.83772 6.11065 -0.544581 0.310364 -1.0587
402 1 7.48724 0.260637 5.4148 -0.642798 0.327401 1.36414
403 1 0.73763 3.03261 1.53002 -1.00188 -0.585372 0.206809
404 1 5.27633 7.07142 2.55897 -0.580842 -0.746235 1.05359
405 1 4.04882 1.68777 6.96303 -0.775373 0.772487 0.196716
406 1 2.23196 4.1561 5.37478 0.419463 -0.574192 -0.557063
407 1 5.43726 8.24509 9.36068 -0.401163 1.2913 1.24019
408 1 4.67887 2.79623 8.384 -1.2072 -0.906519 0.197821
409 1 2.77281 1.36657 2.86428 0.807678 0.392536 -0.125984
410 1 0.487714 3.95466 7.00888 0.848893 0.558757 0.213977
411 1 6.68987 9.01902 5.23413 -0.395907 -0.942856 0.257133
412 1 5.68883 0.3705 3.66054 -0.607533 -0.248636 0.70895
413 1 2.07626 7.61858 0.520157 -1.10156 0.475478 0.452968
414 1 1.42676 7.4994 3.46781 -0.0275543 -0.374357 -0.196607
415 1 1.41117 3.87195 1.11756 0.683194 -0.00791547 -0.386295
416 1 9.40972 8.77447 3.52794 0.668637 -1.60439 -0.612522
417 1 1.42368 8.00774 5.08872 0.210128 -0.686459 -0.87014
418 1 3.37338 0.416411 1.01597 -1.04524 0.594975 -0.276628
419 1 7.61104 2.43422 3.31759 -0.158738 0.315317 0.398351
420 1 0.0165003 1.95659 4.9118 0.367305 0.0196561 -0.172017
421 1 8.00432 8.287 1.88033 -0.305103 0.375721 -1.27722
422 1 3.05471 2.7287 5.80949 1.10672 0.107516 -0.847716
423 1 8.12606 7.37591 9.25279 -0.9204 -1.5522 -0.899089
424 1 7.54619 8.43516 5.52156 -0.692705 -0.175368 -0.59444
425 1 1.73959 1.89819 5.33419 1.11349 1.3606 2.00606
426 1 8.93082 0.81738 8.58345 -0.0976158 -0.645602 -0.224324
427 1 6.52716 5.72303 5.54916 -1.27983 -0.0685607 -0.350037
428 1 3.47241 2.69024 6.97113 1.02975 -0.0297908 0.0491949
429 1 4.68253 3.2733 0.508079 -0.059256 -0.660171 -0.226284
430 1 2.3072 8.8709 6.15165 -0.84223 -0.0799152 -0.594273
431 1 9.35494 7.40636 7.57965 -0.0362744 -0.459242 -1.20288
432 1 6.14842 0.748598 6.87522 -0.421113 0.2219 -1.18157
433 1 3.73198 2.20701 7.80879 -0.177122 0.489878 0.293856
434 1 4.78628 4.38728 2.19919 -0.301811 0.608732 0.497613
435 1 1.93523 0.600744 2.81267 0.0152379 0.497596 0.0950373
436 1 2.12848 3.35604 9.28856 0.121642 -0.0756917 0.43381
437 1 8.24871 5.02358 7.70221 -0.521475 0.641127 -0.011345
438 1 1.61787 9.04332 0.0770934 0.711065 -0.120651 -0.248612
439 1 5.17954 6.33676 4.25844 0.382123 -1.19604 -0.708439
440 1 0.636602 4.475 2.74659 -0.685152 0.810459 -0.649337
441 1 9.05816 0.679959 2.29556 -0.186416 -0.416227 0.27557
442 1 4.88905 6.94159 0.747383 0.279025 -0.177628 -0.761781
443 1 3.88573 6.62566 8.03721 0.516438 -0.215925 1.09472
444 1 7.85287 6.47341 4.25312 -0.734506 0.393576 0.207728
445 1 4.85741 0.41626 8.6878 0.491327 -0.307126 -0.466051
446 1 7.39813 5.82606 2.31351 -0.744575 0.31646 0.245475
447 1 0.99779 7.47786 0.547406 -0.0543704 -0.183099 0.155335
448 1 4.54617 7.71099 7.9413 0.369944 0.354061 0.039247
449 1 2.31732 1.44358 8.91209 -0.54121 0.618897 -0.484787
450 1 2.1126 9.27517 7.247 -0.0693022 -1.03992 -1.58291
451 1 6.90492 0.693737 8.75485 0.644986 -1.14017 0.249917
452 1 5.64026 6.74664 8.29953 -0.0369238 -0.989614 -0.0810663
453 1 5.41923 7.79262 8.40442 -0.577995 1.22485 1.15462
454 1 5.68547 6.46509 5.16213 0.612577 -0.273226 0.240049
455 1 4.28566 5.44834 6.81383 -0.181322 0.937825 -0.576967
456 1 0.97473 6.29823 2.27292 -0.238119 -0.190204 -0.337645
457 1 4.82603 4.24782 0.0999989 -0.0614061 -1.75261 -1.51595
458 1 8.59382 7.42597 4.48497 0.821938 0.532952 0.35426
459 1 2.92553 7.11507 2.36282 0.340648 -0.155498 -0.0370885
460 1 8.14551 2.6788 9.02632 -0.548404 -1.29661 0.571203
461 1 9.00341 4.9694 3.20549 -1.26179 -1.37075 -0.304189
462 1 0.960344 6.56391 3.37616 -0.296157 1.20105 -1.05976
463 1 2.01489 0.521757 9.17064 0.325814 0.278699 -0.867616
464 1 9.36636 6.22913 0.834165 0.387998 0.116407 1.58807
465 1 1.69696 7.91406 2.21322 0.646993 -0.78279 -0.951808
466 1 8.13007 7.79076 0.897567 -0.282153 -0.151684 0.267047
467 1 5.16914 1.14861 3.00916 -0.379348 0.224123 0.184577
468 1 6.66796 8.89385 2.87615 0.509263 -0.164487 -0.264889
469 1 2.37057 2.02043 1.30355 0.58923 -0.417276 0.275454
470 1 6.98236 5.46053 4.752 -0.1479 -0.403623 -0.707753
471 1 2.51797 8.51806 0.256259 -0.566006 0.297574 0.540348
472 1 2.36089 6.9949 6.34233 -0.251421 0.391951 -0.629422
473 1 8.97005 1.23222 6.80092 0.0542718 -0.404347 -0.0532927
474 1 6.67324 1.7526 8.65849 0.616725 -0.377099 0.429943
475 1 4.48562 8.81485 8.59307 -0.87337 -0.550775 -1.18362
476 1 2.81763 5.54624 4.37668 0.756473 0.525504 -0.793957
477 1 8.54484 6.78127 7.66475 1.23291 0.645662 -0.7638
478 1 5.79773 9.37459 4.57373 0.322085 -0.367362 0.416322
479 1 7.35273 0.794254 2.12464 -0.0530943 0.806277 -0.533226
480 1 6.05843 6.87957 6.09238 -0.111307 -0.788436 -0.0784578
481 1 2.69113 4.37369 4.47146 -0.838032 -0.798371 0.0864699
482 1 4.57487 6.28526 5.05807 -0.896735 -0.511836 1.16061
483 1 1.10989 5.08024 3.42462 1.129 1.2822 0.407593
484 1 0.295413 3.78826 9.12029 -0.161394 -0.546495 0.356074
485 1 6.69943 5.82818 7.24509 0.337651 1.07821 0.565169
486 1 1.76325 4.62823 2.82079 0.0175336 0.837561 -0.214424
487 1 0.717233 6.47862 4.32565 0.434448 0.526214 -0.0115337
488 1 6.61302 2.26039 5.59108 1.57245 -0.632564 0.534635
489 1 6.44823 8.4897 0.568986 0.0345372 0.325946 0.117309
490 1 5.51274 6.05966 2.18352 -0.767531 -1.1445 0.662776
491 1 4.5537 5.40707 3.11014 -0.359668 1.24709 0.340224
492 1 1.43637 8.96878 5.55032 -0.31875 -0.605351 0.967025
493 1 7.96212 4.39904 0.576516 0.253243 0.403985 -0.643239
494 1 4.21974 4.07342 2.97457 0.732338 -0.434369 -1.31359
495 1 3.08793 8.19533 1.03324 0.187821 1.10272 -0.989816
496 1 2.6308 0.171676 5.46386 0.5583 -1.19781 0.689184
497 1 6.38473 7.595 6.86564 0.164429 1.99082 0.123359
498 1 2.6173 1.19616 0.453049 0.0487532 -0.460502 -0.349078
499 1 3.69055 3.09852 2.38814 -0.739826 -1.35365 0.0247062
500 1 6.69012 6.4371 8.15468 0.0645374 0.0483679 0.948278
501 1 5.76173 4.12609 3.7066 0.317369 -0.963756 0.903862
502 1 7.91025 4.1198 3.95136 -0.614161 -1.10993 -0.112698
503 1 3.4556 1.1684 7.71129 -0.471725 0.365612 -0.266134
504 1 2.91012 0.498038 2.25309 0.387707 0.209324 0.940491
505 1 7.70281 3.36618 0.331885 0.684519 -1.72581 -0.917428
506 1 5.54239 5.75804 7.66563 -1.27214 0.329158 1.34814
507 1 5.41497 7.56949 7.31999 1.02419 -0.10788 -0.682224
508 1 0.821788 8.18772 4.01073 0.309925 0.033244 0.310746
509 1 3.30475 2.66997 1.50269 -0.376758 1.64491 1.64129
510 1 5.76885 4.68052 0.518325 0.27783 -0.875645 -0.594641
511 1 6.18214 1.71031 7.54854 -0.0899723 0.204906 -0.765946
512 1 1.98176 6.20172 1.91758 -0.951154 -0.350057 0.34398
513 1 4.69383 7.68123 1.56 0.0260053 0.273375 -0.379972
514 1 8.05445 5.45671 2.93116 1.22126 -1.19164 0.212353