ITEM: TIMESTEP
280
ITEM: NUMBER OF ATOMS
1000
ITEM: BOX BOUNDS pp pp pp
0.0000000000000000e+00 9.4000000000000004e+00
0.0000000000000000e+00 9.4000000000000004e+00
0.0000000000000000e+00 9.4000000000000004e+00
ITEM: ATOMS id type x y z vx vy vz
1 1 4.78023 0.16777 1.11939 -0.749204 0.516397 -0.69336
2 1 7.97298 2.88454 7.7862 0.11729 0.0652793 -0.886224
3 1 0.454908 3.23185 3.65996 0.402545 1.06557 0.17145
4 1 0.708789 8.11202 6.98433 0.910223 1.21585 -1.05632
5 1 5.4945 2.08642 5.79695 -0.782681 0.0984897 0.0770754
6 1 7.17235 7.4022 5.93832 -1.27041 -0.70733 -0.334814
7 1 1.14569 8.52381 0.789965 0.237254 0.265165 0.603918
8 1 2.25174 2.2885 6.24548 1.18172 0.638749 0.940907
9 1 1.26937 2.69455 4.83155 -0.958516 0.673731 0.606495
10 1 2.95488 9.07549 1.65675 0.0558352 1.59234 -0.565169
11 1 8.49165 6.91108 0.743649 -0.0204856 1.01732 -0.952986
12 1 7.10428 2.98202 2.66215 -0.167399 -1.08431 -0.734677
13 1 8.14502 1.90845 6.24981 -0.46155 -0.612577 -0.274553
14 1 3.67008 6.28289 1.55696 -0.0942664 0.0494104 -0.405547
15 1 7.82716 2.97487 1.55416 0.154049 -0.430838 0.196885
16 1 1.32663 3.08625 8.49965 0.932594 0.300986 0.3734
17 1 8.05106 4.43896 6.78575 0.231506 -0.198537 0.143569
18 1 0.136013 3.44934 2.54411 0.3555 -0.170623 0.225598
19 1 6.10811 3.04663 8.92015 0.49794 -0.0796057 -0.841416
20 1 4.3237 3.37822 7.03422 0.991179 0.217631 0.467532
21 1 1.68872 5.10194 5.7939 0.173404 0.86411 -0.67807
22 1 2.91028 3.24779 4.7224 0.0492608 0.121966 -0.189079
23 1 5.31382 3.79324 8.67825 -0.725203 0.185709 0.91479
24 1 2.29028 4.00982 8.12973 -0.902344 -0.21205 -0.42979
25 1 6.2308 2.83528 7.64949 -0.631345 0.88008 -0.404662
26 1 2.16558 3.0549 5.4708 -0.507289 1.21312 0.554622
27 1 8.23497 0.891433 7.79218 0.114678 0.00625636 -0.0718808
28 1 4.51961 6.43736 3.39566 -0.00111507 0.503127 0.930728
29 1 2.9283 0.140162 9.38418 1.22667 0.423484 -0.415959
30 1 7.27379 2.77491 4.31198 0.195645 -0.355531 1.31042
31 1 8.77417 3.02963 1.15277 -0.258853 -0.0420122 -0.437898
32 1 4.34198 0.404675 5.85105 -1.27995 0.675068 -0.339832
33 1 1.87915 7.28034 8.46327 0.565637 1.27801 -0.320465
34 1 3.62074 7.35591 1.52295 -0.155583 0.227159 -0.723791
35 1 9.26298 0.495636 6.10029 -0.485584 -0.448625 -0.140432
36 1 6.57775 6.39971 1.90665 -0.238371 1.32009 -0.579766
37 1 8.56961 1.57974 9.2857 0.683426 -0.459478 -0.0722242
38 1 1.16605 1.54195 2.9988 0.221091 0.168633 -0.120116
39 1 0.343019 0.985355 4.29958 -0.661048 -0.520586 -0.216392
40 1 2.43151 4.08769 0.497356 -0.477175 0.456004 -0.621306
41 1 6.13279 9.31365 6.10604 -0.0115027 -0.36712 1.77925
42 1 1.29256 2.03328 8.83106 -0.508684 0.251991 0.957597
43 1 1.93857 2.9275 1.68066 -0.159163 -0.0173787 0.0386584
44 1 7.29682 1.34666 5.67639 0.0170763 -0.756258 0.318955
45 1 6.26742 2.21953 6.60086 -0.91723 -1.15219 1.30888
46 1 7.78596 6.50885 3.20909 -0.846093 0.198557 -0.0417996
47 1 6.07675 5.61432 0.314046 -1.29259 -0.259074 0.213708
48 1 7.75308 7.49815 3.86889 0.715209 -1.4185 0.878229
49 1 3.55105 4.54131 6.75907 0.535354 0.843251 -0.188917
50 1 8.63813 8.0908 3.54258 -0.12955 -0.331093 -0.308559
51 1 6.3219 7.33434 2.52858 -0.209153 -0.919159 0.232881
52 1 1.14839 3.58808 0.0868027 0.382324 -1.12235 -1.92212
53 1 5.41855 3.07386 3.19926 -0.683957 0.0968474 -0.116334
54 1 0.207381 6.03035 5.19878 0.92696 -0.447759 1.19618
55 1 8.9782 5.13205 5.37027 1.64452 -1.24433 -0.0262575
56 1 0.16964 4.39897 4.87866 -0.0134575 0.29536 0.310481
57 1 0.069301 8.75837 6.45338 0.102957 -0.265229 -0.582729
58 1 5.14147 3.98648 1.16764 0.594175 0.603852 1.00637
59 1 0.478145 7.5868 4.80066 1.89518 1.71435 1.63446
60 1 0.529172 5.41617 0.461686 -0.483 1.15101 -0.924386
61 1 5.52463 9.04376 8.67854 -0.483113 -0.995015 -0.969743
62 1 0.344117 0.277426 1.59268 0.387581 -0.133594 -0.074396
63 1 7.31429 6.94714 7.64881 0.230384 -0.127978 0.565891
64 1 3.46444 5.27863 9.02835 0.940701 0.152319 -1.25276
65 1 2.32968 2.51858 8.71135 0.424931 0.0184602 1.22243
66 1 6.4891 4.87897 9.05971 0.74223 0.0845981 0.0935731
67 1 6.3624 5.38452 2.32908 0.373133 -0.349283 -0.199221
68 1 4.29453 5.12756 0.213679 0.445688 -0.00131742 1.29296
69 1 2.5578 2.90965 0.751492 0.977908 -0.800432 0.00751193
70 1 0.0191792 1.5828 3.52287 -0.28364 -0.0848395 -0.16167
71 1 7.32473 5.85379 1.23044 0.116808 -0.27662 -0.680148
72 1 7.17171 4.98065 1.76622 0.620521 0.0466134 0.832218
73 1 2.07237 8.55889 1.26196 0.900059 1.38584 -0.223143
74 1 4.7232 5.20281 7.64892 1.01492 -0.185722 -1.89164
75 1 8.33504 9.24753 5.06067 -0.442754 -0.179934 0.515285
76 1 6.73473 7.9597 3.34702 -1.55995 -0.358087 -0.0642456
77 1 4.85691 4.02419 7.76005 -0.589458 1.07465 -0.783449
78 1 2.41532 4.79607 9.07343 -0.282231 -0.387491 -0.0457513
79 1 7.78813 7.77456 2.88087 0.658185 -0.40225 -0.275435
80 1 0.0392003 6.63328 2.79073 -0.797537 -0.972945 -0.652993
81 1 5.82531 0.369213 2.65409 0.0307922 -0.0130661 0.793881
82 1 9.0759 3.1718 7.45495 0.521069 1.94942 -2.22133e-05
83 1 3.44152 8.70404 4.52107 -0.862598 -0.32635 -0.470936
84 1 0.801793 4.80404 7.48034 -0.745529 -1.30028 -0.317892
85 1 1.96698 2.21772 3.15877 0.482871 -0.583063 0.160377
86 1 3.36367 4.36121 8.60912 -1.14726 0.960032 -1.05605
87 1 9.1162 4.37978 2.27384 -0.484262 -0.267135 -0.0416931
88 1 0.509395 1.77091 2.0039 0.462033 -0.530221 1.77449
89 1 4.32468 2.19055 1.77326 0.11145 -0.187086 0.248484
90 1 7.29458 6.99381 2.31505 -0.488707 0.668195 -0.703596
91 1 4.42208 2.67044 3.42137 -1.00013 -0.456823 -1.26991
92 1 0.61955 1.21456 8.53368 0.170838 -0.179012 -0.0490883
93 1 3.99883 6.09467 2.51587 -0.870552 0.390608 0.141199
94 1 4.94086 8.41613 0.951064 -0.711869 -0.823106 1.27285
95 1 6.24861 6.09223 4.12741 1.35659 -0.296218 0.0942446
96 1 3.99947 8.59136 7.64634 -0.674929 -0.40691 -0.710094
97 1 5.5798 4.73451 2.78638 0.503202 0.190457 0.308432
98 1 8.40902 8.74212 2.72933 0.485834 2.24232 -0.166412
99 1 1.11612 9.39145 2.73491 -0.219065 0.225005 -0.913228
100 1 6.79855 0.100627 7.7897 0.773037 0.554891 0.27543
101 1 8.76417 5.30906 0.830774 0.447021 0.485495 -0.606429
102 1 7.71659 6.50745 8.48955 0.517149 -0.188074 0.746928
103 1 4.72232 0.559675 2.26893 0.361612 0.111195 0.166696
104 1 8.70875 0.0508111 1.06875 0.130084 -0.380337 0.680918
105 1 7.48445 8.74565 8.15593 -0.587973 -0.0642944 -0.228639
106 1 3.73064 3.27488 7.87496 -0.0215203 0.151382 -0.241437
107 1 1.47381 7.04597 1.55442 0.287749 0.0718549 1.63371
108 1 9.22941 5.53767 9.20899 0.21889 0.281612 -0.240076
109 1 5.37292 1.68739 6.76267 -0.143933 0.127797 -0.510979
110 1 2.7669 7.86803 6.72126 0.131624 -0.758453 1.29774
111 1 2.25417 0.13214 0.751729 -2.03157 0.671899 -0.31948
112 1 1.43823 6.00433 5.10267 0.552909 0.473139 -0.224912
113 1 9.3159 9.03844 7.5491 0.2216 1.10444 0.674093
114 1 2.25131 6.51343 4.66265 -1.03369 0.441834 -0.861568
115 1 5.86387 8.50436 7.03139 -1.53255 0.690296 -1.10057
116 1 2.43899 7.82589 2.95536 -0.794835 -0.125302 -0.300845
117 1 7.34207 8.27376 9.21494 -0.654878 0.140581 -0.500635
118 1 0.530992 0.232964 8.18366 0.515918 -0.698064 0.0816604
119 1 7.58406 0.0109154 3.05687 0.499202 0.244834 0.559401
120 1 7.33554 6.56219 0.18644 0.857977 -0.767905 0.916669
121 1 6.03577 5.76227 8.65565 0.229023 -0.0737262 0.146016
122 1 0.12584 8.7252 0.993787 0.328896 -0.236876 0.0363927
123 1 1.31617 2.43856 6.83392 0.109802 -0.520663 -0.310624
124 1 3.52931 6.75312 3.18734 -0.487417 -0.366654 -1.31695
125 1 0.69141 2.17846 4.19246 0.155932 -1.01266 0.753847
126 1 0.429834 6.79682 6.80296 0.83839 -0.12109 -1.16879
127 1 1.6502 0.135935 4.6503 0.770777 -0.522658 1.13219
128 1 4.87261 2.90669 5.42682 0.0245947 0.139145 0.287888
129 1 4.88582 4.99304 1.08014 -0.914394 -0.0536386 0.138761
130 1 8.31599 0.890993 5.82189 0.678018 0.330518 -0.565438
131 1 9.06035 0.797426 5.10973 -0.301103 -0.248137 0.929957
132 1 6.73705 3.7013 4.00635 0.575795 -0.228229 -0.543208
133 1 3.71265 3.93566 4.35509 -0.450646 -0.915405 -0.428417
134 1 6.11676 2.34395 0.50272 -0.337138 0.661657 0.448098
135 1 8.30525 1.6532 5.17326 -0.266337 -1.26802 0.0783043
136 1 3.86486 5.78687 4.11024 1.18746 0.0357166 1.68556
137 1 2.74621 2.68408 7.73949 1.21204 1.32165 1.5156
138 1 1.50324 6.96924 5.58488 -0.853784 -0.583084 -1.06846
139 1 0.687954 0.273639 5.09128 0.838836 -1.65989 -0.0506463
140 1 1.37726 3.80639 3.41039 -0.655162 0.439936 -0.882742
141 1 2.46433 3.18936 6.58518 -0.0591463 -0.0637264 0.668301
142 1 3.55554 3.61856 6.3274 -0.214623 -0.365944 0.494719
143 1 3.03758 6.16715 8.60183 -0.423896 -0.866008 0.31203
144 1 8.97107 8.5075 1.81223 0.111039 0.152442 -0.0288071
145 1 0.383773 6.42265 7.79218 0.191423 -0.101787 -0.806066
146 1 5.72875 9.06552 0.985815 0.128667 0.603923 -1.10296
147 1 1.30353 7.33988 6.53072 0.647778 0.0398861 0.363515
148 1 8.93096 4.67346 8.48121 0.670755 -0.262225 -0.624249
149 1 1.9411 6.68278 2.87702 0.964312 -0.210888 -0.281858
150 1 1.03922 7.31727 7.58124 0.0290133 0.678399 -1.10016
151 1 3.93992 8.39787 5.41253 0.305657 0.186366 -0.187865
152 1 4.34943 9.04498 2.66109 0.888954 0.441401 -0.0256891
153 1 8.91881 2.77562 2.92123 -0.621503 -1.43171 0.771026
154 1 6.02285 6.62445 7.31402 0.197548 0.833972 0.679814
155 1 5.24205 1.07653 5.50348 0.362761 -0.0156977 -1.43145
156 1 3.80851 0.599594 2.83078 1.05438 0.511217 0.202812
157 1 8.52619 9.33335 8.227 -0.141626 -0.753284 0.0169265
158 1 0.572784 8.64856 4.96565 0.885374 0.102737 0.544124
159 1 6.23069 7.70697 4.23042 -0.955211 0.238571 0.876834
160 1 9.10694 1.1579 0.878327 0.445265 -0.28225 -0.761535
161 1 2.46009 5.06566 0.7417 -0.312349 -1.20968 -0.0180833
162 1 7.33685 4.58972 8.43601 -0.150751 0.357279 0.450262
163 1 6.59539 5.24449 8.06385 -0.521644 0.0528834 0.855624
164 1 1.77917 5.72187 2.8574 0.637309 0.1876 0.548948
165 1 3.58374 1.50438 8.68773 -0.727353 -0.967309 -0.176627
166 1 8.2887 5.1306 3.92395 -0.0269113 -0.316946 -0.642524
167 1 0.465242 8.80528 0.0512605 -0.287116 -0.00608939 0.267821
168 1 6.93785 4.83351 0.702625 -0.963166 -0.892226 0.491894
169 1 0.151718 5.40168 8.0893 1.10733 0.308034 -0.20811
170 1 2.49725 7.33835 3.90978 -0.480016 1.38033 -1.0642
171 1 1.052 5.24954 2.19554 -0.585752 0.0223895 0.644914
172 1 6.30577 6.58724 9.25365 -0.710122 -0.14798 1.61669
173 1 6.09102 8.96028 1.96476 1.08934 0.513771 -1.30046
174 1 1.81002 3.22699 7.4485 -0.380039 -0.915327 -0.750005
175 1 3.98398 0.019401 0.12236 0.617155 -0.154706 0.79191
176 1 3.37204 7.61647 3.79306 -0.6711 -0.179548 0.209651
177 1 1.01482 0.421437 9.1297 0.761972 -0.24445 -0.00809857
178 1 4.23335 6.26063 6.08259 -0.629049 0.360242 -0.390748
179 1 7.14693 4.05965 0.0578119 0.0362522 0.216366 0.921418
180 1 4.49445 7.1569 6.72168 0.200245 -0.97419 -0.769485
181 1 7.79571 5.62985 0.37827 0.145046 -0.478161 0.265947
182 1 5.58902 8.05145 2.12773 -0.425648 -0.160143 0.0352321
183 1 4.67774 7.06187 8.62211 -0.298578 0.672807 -0.461105
184 1 7.94921 6.56734 6.70543 -0.682315 0.0560983 -0.401206
185 1 7.78593 1.93821 4.26626 0.831784 -0.210013 1.47874
186 1 7.72195 7.36243 4.96833 -0.0165788 1.34508 1.13476
187 1 8.08993 4.48286 1.59072 0.354692 -0.381815 -1.47399
188 1 9.28394 6.71444 8.72559 0.65371 -0.467974 0.896
189 1 7.87099 3.43808 4.9515 1.05584 -0.506438 1.46937
190 1 8.86343 3.68809 3.27428 -0.517841 0.839054 0.680581
191 1 6.93642 2.7241 8.41784 -0.382883 -0.101279 1.14612
192 1 8.20771 5.4881 6.76648 0.564385 1.01877 0.0234543
193 1 4.03171 7.10337 5.48337 -0.124501 -0.100245 0.131609
194 1 5.33111 1.05533 7.61976 0.0303187 0.544266 0.690182
195 1 0.364775 8.15016 7.98098 -0.246453 0.701342 0.0290443
196 1 5.70635 6.99042 1.51463 -1.13406 -1.40598 -0.605878
197 1 3.83111 3.33791 5.24407 0.295888 -0.0330229 -0.701542
198 1 0.945919 4.61632 6.38667 -0.544423 -0.95168 -0.0875391
199 1 8.33408 5.83583 5.85525 -0.398452 0.636977 0.220014
200 1 4.80041 7.88306 5.22802 1.35013 0.0428728 0.399288
201 1 0.32555 3.20348 0.733267 0.676649 -0.465125 0.908636
202 1 9.03947 3.52684 4.27295 -0.0390184 0.891019 0.0245383
203 1 9.39894 5.62877 6.18337 0.243498 -0.718945 -0.738398
204 1 6.82963 1.77261 4.66342 0.088679 0.688013 -1.07363
205 1 1.1955 8.9964 6.5538 -1.03088 -0.248167 -0.67225
206 1 4.80683 9.11905 3.86417 -1.47359 -0.730494 -0.974695
207 1 7.29498 4.88987 7.41337 0.324549 -0.389565 0.564246
208 1 1.61834 3.85242 6.16977 1.95881 -0.325794 0.220862
209 1 6.57614 7.48713 1.54135 -0.402452 -0.762655 0.275144
210 1 1.42282 5.28741 8.85877 -0.552928 -0.979371 -0.0612865
211 1 3.80289 2.32302 5.18178 0.652284 0.552813 -0.0771384
212 1 3.88938 4.11267 1.85831 1.18202 1.32989 1.30599
213 1 4.13379 2.66545 6.15999 2.23577 -0.247922 0.384708
214 1 0.887539 6.43536 0.321414 -0.471768 -1.37395 -0.0706093
215 1 7.0193 7.25838 8.82981 0.257819 -0.143957 0.322953
216 1 3.63178 2.68754 8.86636 0.55001 0.340145 0.619274
217 1 5.60313 1.11607 1.95054 -0.59756 -0.163084 -0.302354
218 1 0.215292 3.03093 8.35001 0.216911 -1.01503 0.949485
219 1 4.77017 2.27909 0.801675 0.493393 0.192052 1.15198
220 1 8.624 3.49392 8.419 0.189677 -0.897765 0.539316
221 1 6.46532 2.64046 3.45251 1.20954 -0.936319 0.558893
222 1 5.28087 5.21197 6.73497 -0.829562 0.326501 -0.213075
223 1 8.71906 5.33029 1.95933 1.37845 0.0958402 0.97388
224 1 5.75815 7.80127 0.917429 -0.151011 0.529957 -0.16256
225 1 2.64967 1.81629 3.83975 0.461061 0.575915 0.739522
226 1 8.21928 7.39613 6.06083 1.29471 -0.121704 -0.358755
227 1 2.94746 3.96827 2.59714 0.310366 -3.02772 -0.494566
228 1 8.59293 8.30468 7.84777 -0.239592 0.248709 -0.889535
229 1 3.146 7.53764 0.42403 -0.214811 0.033157 0.65566
230 1 3.52054 0.562216 6.8471 -1.22383 0.959295 0.016666
231 1 3.67501 7.47381 7.35643 -1.05539 0.278236 0.761715
232 1 1.65676 8.22047 7.95802 1.2444 0.0656304 -0.176417
233 1 7.84959 7.58225 8.22482 0.321862 -0.172463 -0.704004
234 1 5.2231 2.63702 9.25109 -0.921411 -1.19298 -0.357296
235 1 0.84396 5.30611 4.51199 -1.1925 -0.206048 -0.577859
236 1 7.37034 5.89272 6.19867 -0.516383 -0.0344187 0.120851
237 1 7.48252 3.38215 6.96873 -0.149873 0.572438 -0.0759141
238 1 4.24283 1.90366 9.3625 0.472736 -0.347709 0.323757
239 1 9.05377 4.27231 1.12792 -0.0845575 -1.30664 -0.354642
240 1 4.64106 8.93593 4.95094 -0.13333 0.876008 1.5336
241 1 5.61759 6.02874 3.21807 0.016248 -0.651288 0.363043
242 1 8.00134 3.26201 2.89745 -0.403345 0.977327 0.146844
243 1 1.15005 0.864852 2.0796 -0.389339 -0.156711 0.770598
244 1 7.95885 4.04659 7.83488 0.383772 0.186115 0.518243
245 1 7.15842 4.91422 2.81339 0.329361 0.768286 -0.829883
246 1 2.56668 6.93453 9.19293 -0.359427 0.397361 -1.35087
247 1 1.35513 1.99513 1.41288 0.687262 -0.41149 0.0560864
248 1 9.29261 8.79864 8.60811 0.306598 0.783214 -0.276344
249 1 1.43286 7.18905 4.4219 0.101115 -0.644302 -1.29424
250 1 2.19132 8.90464 2.66374 0.190551 -0.0409127 1.50567
251 1 2.13965 7.2481 7.41737 0.636616 -0.301863 -0.633565
252 1 3.65093 3.30714 3.49028 0.485892 -0.266739 -0.416319
253 1 0.932928 6.29387 6.04877 1.20025 0.8966 0.123785
254 1 5.23776 1.48041 4.00446 1.05255 -0.45064 0.284332
255 1 8.91731 8.16327 0.163774 0.423219 0.340285 -0.14544
256 1 8.93433 7.67254 8.57475 -0.586234 0.864216 -0.900928
257 1 4.69396 0.623655 4.72598 0.102015 -0.0728862 0.726592
258 1 4.17194 1.63109 3.05994 -0.119648 0.342014 -0.0681714
259 1 2.84157 5.68597 1.55838 -1.27779 0.180744 0.1888
260 1 5.1449 8.59569 7.77135 0.281935 -0.659759 0.167986
261 1 5.10385 1.64803 8.67978 0.0965732 0.729505 -0.643105
262 1 3.34084 4.50085 3.38521 -0.457815 -1.16694 -1.23056
263 1 5.2754 4.02932 5.43486 0.891392 0.735665 -0.307686
264 1 5.91281 2.68366 2.35979 -1.34139 0.509115 -0.266763
265 1 7.30142 5.66577 3.76071 -0.224512 -0.568056 -0.762205
266 1 8.44607 6.28728 2.39396 -0.00440996 -0.0124976 -0.393394
267 1 3.59195 8.46494 0.0551248 -0.714898 1.27984 -0.374288
268 1 5.9032 3.14748 6.65799 1.2745 -0.911249 -0.179763
269 1 8.40002 6.14325 1.34893 0.240546 1.21937 1.00933
270 1 8.01962 3.14329 5.97558 -0.259001 -1.02031 0.00161331
271 1 2.84624 0.312154 3.4018 -0.751323 -0.253564 0.963084
272 1 6.31874 4.02688 5.70335 0.218417 0.495748 -0.950532
273 1 8.79964 6.05979 3.35646 0.325416 0.755078 -0.639827
274 1 6.51062 3.26871 0.647971 0.738024 -1.26265 1.18245
275 1 2.71118 8.21811 7.8396 0.813626 -0.615556 -0.101834
276 1 5.39445 7.23758 9.2594 0.884708 1.81999 1.35091
277 1 6.03023 4.59385 4.82004 -0.084462 0.964363 -1.473
278 1 1.2227 4.87555 1.22666 0.120254 0.105651 0.897429
279 1 0.0178557 7.18369 0.395481 0.739287 -0.0653051 0.469679
280 1 5.71536 0.0828538 7.78312 0.487719 0.0595094 -1.22942
281 1 6.02024 6.95464 3.39101 -1.69857 -0.570996 0.559061
282 1 3.2229 6.65111 4.35687 -0.114574 1.66069 0.84971
283 1 9.03317 6.63212 6.03245 0.138531 0.365214 -0.861858
284 1 3.82496 0.504037 8.62291 0.661365 0.209277 0.0440388
285 1 4.58891 4.6368 8.53576 -0.932466 -0.228811 -0.724752
286 1 2.45938 0.743479 7.29483 -0.554133 -1.35594 1.23512
287 1 8.62001 3.48554 2.11753 -1.68372 0.549532 -0.693108
288 1 3.82419 0.066268 1.82707 0.434525 0.86983 -0.847379
289 1 6.40554 4.37346 2.24593 0.925155 0.43386 -0.0876803
290 1 2.45021 5.09247 3.56167 0.232823 0.328796 0.231587
291 1 1.36775 0.592214 7.11271 0.283557 -0.54504 -0.070574
292 1 1.98636 5.05401 4.80034 1.32301 -0.143952 0.190437
293 1 3.43661 7.60866 4.85267 0.052658 0.180324 0.614248
294 1 3.76319 6.43651 7.02666 0.150071 0.663041 0.652242
295 1 3.56375 6.02149 5.23973 -1.43279 0.582877 0.167842
296 1 5.36257 3.36517 4.66473 0.0226082 0.80104 -0.473758
297 1 4.20852 3.50977 9.08334 -1.00743 0.171419 -0.140183
298 1 8.00044 2.3123 0.693834 0.979273 -1.80282 0.729707
299 1 0.686654 7.98242 1.59804 0.884977 0.231182 -0.673127
300 1 6.2563 1.5055 1.11396 0.555781 0.0891661 -0.271532
301 1 0.688128 2.12318 7.90923 -0.411693 0.317532 -0.810137
302 1 6.46812 8.38245 6.11417 -0.0908382 0.485856 1.33364
303 1 4.57802 4.42672 6.921 -0.684919 -0.109058 0.0622781
304 1 6.50452 1.1743 0.17302 -0.823869 -0.85932 -0.335771
305 1 1.54113 4.58459 0.223419 0.681481 -0.564885 0.112389
306 1 8.64503 0.260988 6.9902 -0.527972 -0.973727 -0.0647028
307 1 4.62277 6.5139 1.71668 -0.195185 0.92327 1.00556
308 1 6.07034 8.77241 3.68376 -1.66526 -1.06797 -0.134169
309 1 3.62567 5.03827 4.90718 1.68879 -0.309836 -0.894067
310 1 9.07824 2.40781 4.00763 -2.62165 -0.0230383 -1.0258
311 1 5.70942 2.29235 8.27788 0.680202 -0.467531 0.819643
312 1 4.16746 7.12996 2.49911 -0.600198 0.493771 -1.20658
313 1 9.18102 7.77198 1.16249 0.187268 0.950551 -0.593823
314 1 5.60136 4.74649 8.25028 0.431409 0.720365 -1.35392
315 1 5.99412 5.87765 6.51077 0.238861 -1.1649 0.261604
316 1 1.26036 8.42949 3.0374 0.072994 -0.574141 -1.00579
317 1 3.69278 2.95011 0.54423 -0.832743 -0.0956783 -0.315168
318 1 0.298113 2.7829 5.3692 0.908945 -0.236538 0.59328
319 1 7.52333 8.22871 6.45969 0.0339777 0.416004 -1.5244
320 1 8.21712 2.38187 2.34484 0.942873 0.231604 -0.549628
321 1 4.70659 8.71534 6.0215 -0.0808525 1.31131 0.493003
322 1 0.288765 0.438736 7.06711 -0.781762 -0.838616 0.390093
323 1 3.34723 5.58928 3.22725 0.458927 1.31116 0.12275
324 1 5.51305 1.55742 0.245905 0.549104 0.943978 -0.40722
325 1 4.80853 1.86069 4.97937 1.53221 -0.216967 -0.584627
326 1 7.74507 0.0308626 7.40512 0.759851 0.255159 -0.581235
327 1 0.916534 7.05869 8.90197 0.974549 -0.219797 -0.996752
328 1 4.67729 5.46357 2.01196 -0.836899 -0.1144 1.55409
329 1 1.87384 3.50715 4.5309 0.758356 -0.327197 -1.10673
330 1 3.43073 2.53972 4.20343 -0.325105 0.877875 -0.212739
331 1 4.5401 3.68728 6.07178 -0.703355 0.425871 -0.297718
332 1 1.56281 4.21816 7.13209 0.0745112 -0.202391 -0.169452
333 1 6.47728 6.42563 0.862592 0.621981 -0.838246 0.0430026
334 1 3.6672 0.105547 7.77957 0.204731 0.824321 -0.876052
335 1 3.71421 1.75486 1.04844 0.552029 0.903378 0.188916
336 1 0.911386 0.523336 6.12602 0.520937 1.06349 0.271735
337 1 8.79468 3.56373 0.267975 -0.0867899 -0.461894 1.23289
338 1 5.87347 1.92239 3.24192 1.25331 -0.749364 1.33499
339 1 8.28603 8.54117 8.86031 0.509591 -0.441961 0.862987
340 1 2.77636 5.01834 2.58753 -0.611298 0.615255 0.564749
341 1 1.39956 1.16827 0.282363 -0.472598 0.14608 0.501169
342 1 3.69374 7.96912 8.41917 0.980232 -1.05063 -0.221092
343 1 2.09468 3.29274 2.7784 -1.4689 -0.0650912 0.357631
344 1 3.02713 0.918985 4.68085 -0.910957 0.0570695 0.690023
345 1 6.96061 8.45081 4.23503 -0.237513 1.15834 0.833798
346 1 0.612974 5.70209 7.05137 -0.46089 0.288756 -0.581104
347 1 8.91729 4.18218 7.54688 -0.245535 0.135228 -1.26926
348 1 5.24254 3.09838 7.6215 -0.23664 0.355459 0.582548
349 1 3.9892 1.12586 1.88261 -1.09667 0.147651 0.200589
350 1 4.81396 3.64477 3.69424 -0.333307 -0.0479266 1.02951
351 1 7.13844 9.14838 1.95836 1.16578 -0.562223 -0.808994
352 1 5.21042 5.28135 9.03116 -0.722776 -0.902045 1.15755
353 1 1.37283 1.17679 4.63838 0.310539 0.47252 1.09058
354 1 2.86185 0.550216 8.37103 -0.41563 0.0806978 1.00024
355 1 8.93831 3.66558 6.48593 -1.19339 -0.0809087 -0.696029
356 1 0.56969 4.23763 0.614746 -0.283082 1.0561 0.490291
357 1 5.64386 3.01432 1.10056 0.964114 0.374962 0.305901
358 1 1.08607 8.8665 8.6125 0.188045 -0.513098 0.0931125
359 1 3.0339 3.68883 1.28348 -1.10128 1.11753 0.16699
360 1 5.93829 3.0481 5.52266 1.71239 0.692753 -0.563308
361 1 3.4354 1.90516 2.2079 1.01706 -0.0758865 0.0938844
362 1 6.58696 3.23664 1.74439 0.661827 -0.793379 0.619793
363 1 8.28526 7.26056 1.78592 -0.0141232 1.42299 -0.0954582
364 1 4.37221 1.18612 8.07552 -0.305103 -0.337341 1.18289
365 1 1.25568 8.82823 1.85301 -0.322777 0.319651 -0.343617
366 1 6.67795 7.96133 5.10213 0.548198 -1.05268 0.396402
367 1 7.81992 0.900299 4.7093 -0.0207627 -1.21555 0.659636
368 1 2.49597 7.37804 1.38618 0.2272 -0.338191 -0.764043
369 1 7.62454 2.35211 5.35473 0.496503 -0.0718167 -0.687148
370 1 4.77501 1.21266 1.25419 0.847178 -0.470653 -0.538425
371 1 8.16179 0.894278 2.67786 -0.667591 0.501476 0.570442
372 1 5.05437 9.29356 0.235947 -0.933166 -0.0598029 0.69165
373 1 7.85817 0.912595 6.71229 -1.20361 0.289479 0.734665
374 1 6.9429 6.82988 3.95285 0.109612 0.702888 -0.442007
375 1 5.18747 5.82611 5.78364 -0.241358 -0.230623 1.31819
376 1 2.50901 1.72945 7.92896 -0.28357 0.118699 -0.883475
377 1 2.84436 5.21876 8.15689 0.332757 -0.788485 -0.498682
378 1 8.27408 0.0340815 2.03717 -0.64388 0.669215 -0.162054
379 1 8.93895 3.54678 5.33666 0.620874 1.21026 0.489826
380 1 8.66766 7.19716 3.02907 0.142706 -0.318394 -0.420657
381 1 1.64717 5.29204 6.95495 -0.26585 0.335003 0.238798
382 1 6.62633 2.02611 2.00088 -0.0396483 0.682451 1.133
383 1 7.02306 2.53231 1.12818 -0.10359 -0.421213 0.0705747
384 1 7.19203 8.29987 1.19099 -1.44705 1.03705 -0.0144545
385 1 4.98046 8.89221 1.87506 -0.816024 -1.474 -0.331865
386 1 0.33307 2.19804 0.977545 -0.86057 -0.370305 1.01785
387 1 7.4985 1.72728 2.59618 0.348322 -0.889869 0.0397111
388 1 4.79933 6.04133 8.44211 -1.63146 -0.238812 -0.0174901
389 1 7.41726 3.98375 6.04597 0.514186 0.648418 1.20403
390 1 8.53779 4.41032 4.77136 -0.485873 -0.965953 -0.204802
391 1 4.77747 0.850165 0.267293 -0.0310535 0.648535 -0.321235
392 1 2.2117 0.816068 4.00405 -0.476724 -1.07238 -0.332262
393 1 4.70828 0.234387 7.74243 0.105425 -0.0775776 -0.261167
394 1 9.36603 4.47966 6.05754 -0.861959 1.14127 -0.350491
395 1 8.13255 5.24192 8.85269 0.437391 1.08651 -1.00008
396 1 2.83123 1.84547 5.23929 0.710177 -0.91887 -0.507322
397 1 6.91983 3.2884 5.12982 0.127176 0.0267852 0.230637
398 1 7.44231 6.94135 1.12665 0.177512 0.0761658 -1.08188
399 1 1.84063 1.57604 2.2671 -0.723453 -0.500165 -0.0514291
400 1 6.95087 8.07416 2.27947 -0.871487 0.069747 -1.17086
401 1 3.45145 1.78671 6.0381 0.744441 -0.76546 0.147694
402 1 7.42178 0.251871 5.4136 -0.609138 -0.193403 -0.527783
403 1 0.726381 2.99857 1.61394 0.896642 -0.214471 2.17176
404 1 5.28848 7.01484 2.64714 0.571471 -0.20267 -0.643125
405 1 4.01724 1.69011 6.9804 0.452843 -0.468569 -0.0470275
406 1 2.20324 4.09629 5.31801 -0.366305 -0.495934 0.0424456
407 1 5.46338 8.37507 0.100336 1.39564 0.640546 0.0463215
408 1 4.59767 2.80985 8.39182 -0.818748 0.384926 0.195944
409 1 2.82578 1.38644 2.85442 -0.221246 -0.0344968 0.165181
410 1 0.504244 3.97806 7.01097 -0.825895 -0.545122 -0.198893
411 1 6.62975 8.9629 5.25988 0.443603 0.444451 0.00861317
412 1 5.59906 0.411447 3.64082 -0.664789 1.08503 0.63434
413 1 2.08091 7.64349 0.457897 1.53322 -0.144879 -0.734897
414 1 1.45593 7.52815 3.43748 0.716408 1.22537 -0.38902
415 1 1.41437 3.84321 1.13549 -0.794015 -0.402496 0.595215
416 1 0.118614 8.66983 3.47379 1.2659 -0.237647 -0.367695
417 1 1.3708 8.05097 4.99982 -0.893163 1.2094 -0.275877
418 1 3.29364 0.41132 0.991297 -0.448129 -0.418463 -0.420333
419 1 7.5431 2.38798 3.32424 -0.914672 -1.47971 0.685844
420 1 -0.00399879 1.90438 4.87435 -0.973855 -1.143 -0.133591
421 1 7.93879 8.27568 1.89567 -0.120245 -0.488864 0.881581
422 1 3.1065 2.77857 5.72067 0.533712 -0.15963 -0.0681237
423 1 8.06079 7.2734 9.18813 0.220341 -0.400811 -0.679753
424 1 7.57291 8.40598 5.42976 0.927003 -0.245445 -1.33182
425 1 1.76795 2.0536 5.38323 -0.763843 0.435346 -0.678037
426 1 8.99819 0.796692 8.57369 1.28213 -0.044273 0.76948
427 1 6.4072 5.81459 5.55672 -0.799443 0.742733 -0.238846
428 1 3.48803 2.73505 6.95254 -0.690523 0.926676 0.196781
429 1 4.74188 3.22813 0.532428 0.876524 0.335379 1.15692
430 1 2.31735 8.82856 6.17344 0.905349 -1.16107 0.694442
431 1 9.31986 7.3676 7.45058 -0.15902 0.188031 -0.568691
432 1 6.12166 0.832402 6.86794 -0.870052 1.2953 -0.200376
433 1 3.71692 2.20263 7.90218 -0.220432 -0.191049 0.747074
434 1 4.8043 4.47275 2.12693 0.499282 0.582481 -1.47649
435 1 1.98696 0.633867 2.7806 0.659326 -0.190213 -0.571915
436 1 2.09513 3.28944 9.21262 -0.857899 -0.620584 -0.696112
437 1 8.28642 5.05974 7.80436 0.894073 0.204078 0.97322
438 1 1.62612 9.051 0.049316 -0.974321 0.6309 -0.355128
439 1 5.17199 6.24954 4.17357 0.511845 0.308956 -0.166165
440 1 0.614601 4.54737 2.72624 0.461011 0.197144 0.896477
441 1 9.09594 0.744075 2.22094 -0.322887 0.401716 -0.730406
442 1 4.87446 6.90949 0.757216 0.0282048 0.0879591 0.595244
443 1 3.9585 6.66292 8.07174 -0.332052 -0.0324541 -0.7237
444 1 7.86903 6.54549 4.3229 0.513771 0.27903 0.712267
445 1 4.95222 0.460182 8.75712 0.539264 1.27679 0.431071
446 1 7.38738 5.89762 2.32211 1.1574 0.203134 0.0923294
447 1 0.991637 7.45196 0.546035 0.407441 0.0599681 0.278751
448 1 4.52323 7.78268 7.87918 0.195932 0.278817 -0.806221
449 1 2.26203 1.49716 8.89829 -0.370149 0.0312451 0.272636
450 1 2.06233 9.19178 7.08321 -0.339482 -0.284323 -0.900703
451 1 6.89766 0.618579 8.74164 -0.213669 0.0276311 -0.629393
452 1 5.67158 6.70237 8.29713 0.485601 0.0388142 0.486809
453 1 5.40809 7.94676 8.50869 0.145835 1.61112 0.8439
454 1 5.76305 6.51738 5.10536 -0.524759 -1.30428 -1.11233
455 1 4.20173 5.47265 6.78609 -1.37294 -0.442757 -0.019941
456 1 0.950272 6.33796 2.25983 -0.192051 0.170677 0.0992781
457 1 4.81451 4.22306 0.043514 -0.262624 2.07093 0.867796
458 1 8.63688 7.43033 4.41183 0.0737156 -0.053838 -1.37865
459 1 2.95357 7.07746 2.34157 0.740699 0.0518467 -0.406106
460 1 8.14812 2.55865 9.02878 0.404223 -0.716999 -0.460231
461 1 9.01897 4.83286 3.29003 1.90861 -1.14547 0.800337
462 1 0.957748 6.64634 3.29696 -0.324899 -0.102461 -0.186365
463 1 2.08787 0.503639 9.02966 -0.42059 0.12696 -1.87577
464 1 9.34435 6.15932 0.881369 -0.397042 -0.858368 -0.135364
465 1 1.72403 7.89956 2.10457 0.20125 -0.00756219 -1.11346
466 1 8.06411 7.82491 0.901707 -0.481335 0.499118 -0.11617
467 1 5.23196 1.22049 2.92786 0.862792 0.675291 -1.42918
468 1 6.75335 8.9314 2.89452 -0.0412551 0.233722 0.494859
469 1 2.4333 2.05643 1.30262 0.457872 0.594906 -0.131131
470 1 7.00179 5.29497 4.75987 -0.370006 -1.18954 1.3026
471 1 2.48168 8.61605 0.321908 0.819831 0.484337 0.235862
472 1 2.31308 7.03186 6.2542 -0.132778 0.351573 -0.485995
473 1 8.92099 1.24639 6.80389 -0.607603 0.505218 0.0784343
474 1 6.77893 1.70278 8.70431 0.790322 -0.301974 0.398952
475 1 4.38755 8.80239 8.5525 -0.676813 0.590475 0.801209
476 1 2.86758 5.59923 4.3957 0.0902321 0.353058 0.79803
477 1 8.54393 6.76322 7.72878 -1.19204 -0.833818 0.0152438
478 1 5.80976 9.27514 4.65316 -0.312962 -0.799236 0.68759
479 1 7.3851 0.756374 2.0279 -0.667282 -0.78584 -0.742818
480 1 6.02788 6.91194 6.0778 0.334227 0.788291 -0.250214
481 1 2.67163 4.34868 4.40256 0.580629 0.190548 -1.22163
482 1 4.55647 6.28496 5.06587 0.93065 0.890489 -1.17479
483 1 1.1714 5.14846 3.50411 0.163419 -0.619559 0.699168
484 1 0.20468 3.69995 9.08614 -1.42052 -0.865207 -0.405159
485 1 6.75064 5.88057 7.27691 0.946364 -0.132863 -0.0511133
486 1 1.78056 4.60689 2.73834 -0.22206 -0.713699 -0.579847
487 1 0.709191 6.5118 4.35406 -0.722769 0.141836 0.0961411
488 1 6.6366 2.23241 5.64012 -0.94872 0.42841 -0.726715
489 1 6.48032 8.47043 0.528323 0.677868 -0.666802 -0.596573
490 1 5.56964 5.9416 2.1331 1.07274 -0.198617 -0.88145
491 1 4.60815 5.38483 3.0731 1.55577 -0.954273 -0.338624
492 1 1.48227 8.99124 5.48605 0.31637 0.684604 -1.21235
493 1 8.04885 4.56208 0.607578 0.816163 2.01546 0.29746
494 1 4.15825 4.04931 2.88337 -0.98197 -0.768555 -0.0642408
495 1 3.14358 8.28624 1.08138 0.986866 0.217185 1.3041
496 1 2.70206 0.0602598 5.43103 0.655992 0.346452 -0.799658
497 1 6.45457 7.63946 6.81827 1.40179 -1.14783 -0.959764
498 1 2.61079 1.13334 0.517297 -0.00768331 -0.731986 0.716569
499 1 3.58713 3.07076 2.48272 -1.2211 1.72627 1.28642
500 1 6.6687 6.42925 8.23113 -0.557164 -0.186882 0.562359
501 1 5.78929 4.12236 3.76002 1.0838 0.176488 -0.194101
502 1 7.8651 3.98357 3.92979 -0.342183 -1.1962 -0.169455
503 1 3.35517 1.17734 7.73439 -0.537377 -0.33593 0.0234041
504 1 2.91914 0.497707 2.30116 -0.421707 -0.425409 0.0557073
505 1 7.78103 3.28011 0.319138 0.832346 -0.0699884 0.622416
506 1 5.56268 5.77812 7.68665 1.1212 0.141819 -0.470208
507 1 5.48393 7.57893 7.25772 -0.0295976 -0.352084 -0.156551
508 1 0.856704 8.21195 4.07068 0.51794 0.35619 0.168075
509 1 3.21002 2.70214 1.58283 -1.12193 -0.507517 -0.799863
510 1 5.735 4.73653 0.518888 -0.728375 0.87103 0.356353
511 1 6.19533 1.7002 7.4906 0.218331 -0.178191 -0.105057
512 1 1.91548 6.18159 1.89652 -0.690232 -0.0778627 -0.808508
513 1 4.75316 7.66122 1.61529 0.674694 -0.790697 1.06616
514 1 8.11386 5.44235 2.96887 -0.616899 0.440117 -0.342542