ITEM: TIMESTEP
270
ITEM: NUMBER OF ATOMS
1000
ITEM: BOX BOUNDS pp pp pp
0.0000000000000000e+00 9.4000000000000004e+00
0.0000000000000000e+00 9.4000000000000004e+00
0.0000000000000000e+00 9.4000000000000004e+00
ITEM: ATOMS id type x y z vx vy vz
1 1 4.77908 0.160229 1.17262 0.66389 -0.343009 -0.905856
2 1 7.9634 2.90062 7.84775 0.483886 -0.733849 -1.49496
3 1 0.429727 3.2186 3.67773 0.505694 -0.583235 -0.767064
4 1 0.668591 8.05385 7.0268 0.524266 1.02349 -0.432881
5 1 5.50943 2.1135 5.80921 0.150829 -0.904528 -0.608673
6 1 7.19528 7.43347 5.93637 0.527776 -0.437408 0.41394
7 1 1.13182 8.49601 0.769999 0.300573 0.789749 0.129749
8 1 2.20661 2.25172 6.22538 0.439705 0.573112 -0.392696
9 1 1.31388 2.68841 4.81437 -0.605435 -0.283894 -0.144677
10 1 2.91665 9.01253 1.67646 1.12494 0.410213 -0.00817639
11 1 8.48709 6.87634 0.76231 0.231616 0.412688 0.22273
12 1 7.03489 3.0232 2.67407 2.55351 -0.509671 0.291116
13 1 8.16779 1.9136 6.2362 -0.354222 0.310962 0.574027
14 1 3.6513 6.28236 1.56874 0.654857 -0.0404515 -0.213409
15 1 7.82751 3.01305 1.5466 -0.122453 -1.03383 0.0586189
16 1 1.26641 3.07826 8.49114 1.27477 0.0412153 -0.027574
17 1 8.04903 4.4276 6.79498 -0.115047 0.818592 -0.472518
18 1 0.201133 3.47142 2.51945 -2.62706 -0.589375 0.582073
19 1 6.10738 3.06114 8.97316 -0.696747 -0.490971 -1.04551
20 1 4.29171 3.37277 7.02159 0.232728 -0.00666242 0.0155852
21 1 1.70102 5.06975 5.79261 -0.545304 0.23328 0.5878
22 1 2.91921 3.27906 4.74039 -0.520688 -1.35302 -0.447203
23 1 5.33386 3.76872 8.64764 0.145626 0.732169 -0.0794025
24 1 2.32073 4.03475 8.17361 -0.392217 -0.789348 -1.09947
25 1 6.26338 2.79066 7.62914 -0.670844 0.606162 1.24858
26 1 2.16505 3.00787 5.44597 0.557305 0.5018 0.240118
27 1 8.23507 0.882519 7.78512 -0.0426054 0.317758 0.47922
28 1 4.51497 6.40648 3.35491 0.0656446 0.471581 0.356288
29 1 2.92887 0.107973 9.3981 -1.19208 0.80505 0.0737513
30 1 7.24282 2.81253 4.24038 0.8186 -0.945707 1.45408
31 1 8.77393 3.03924 1.15577 0.246789 -0.401005 0.381873
32 1 4.40389 0.374799 5.86295 -0.877143 0.504713 -0.212719
33 1 1.85119 7.24616 8.47785 0.419348 -0.051466 -0.239933
34 1 3.6235 7.34519 1.56228 0.0638147 0.205232 -0.832846
35 1 9.27051 0.503689 6.11154 0.300738 -0.0423016 -0.347524
36 1 6.56309 6.34431 1.93053 0.863795 0.659579 -0.341558
37 1 8.54503 1.59736 9.29852 0.397981 -0.184402 -0.364422
38 1 1.12885 1.5321 2.99683 1.03688 0.189069 0.416741
39 1 0.363541 0.989141 4.33483 -0.115288 0.234696 -0.939197
40 1 2.43734 4.06178 0.534554 0.347357 0.0510426 -0.863309
41 1 6.12874 9.3157 6.07644 0.0339249 0.226145 -0.382687
42 1 1.31144 2.00081 8.80164 -0.254987 0.92764 0.118967
43 1 1.94009 2.94243 1.67617 0.129336 -0.449537 0.0785873
44 1 7.29658 1.37824 5.65959 -0.0434376 -0.439742 0.334703
45 1 6.27203 2.28253 6.5718 0.930467 -1.24841 -0.185472
46 1 7.84018 6.51271 3.21959 -0.958492 -0.261417 -0.313948
47 1 6.13656 5.65596 0.281383 -0.953503 -1.06014 0.823468
48 1 7.72313 7.55551 3.82693 0.531442 -0.692091 0.43146
49 1 3.51335 4.51971 6.75177 0.853618 -0.0232761 0.342356
50 1 8.65261 8.09749 3.5753 -0.424981 0.328041 -1.05886
51 1 6.32181 7.37396 2.51001 0.202684 -0.344689 0.492559
52 1 1.1608 3.60824 0.160859 -1.1313 0.475265 -0.740401
53 1 5.45748 3.04387 3.18724 -0.448708 1.02232 0.401887
54 1 0.165151 6.05779 5.14628 0.727895 -0.554797 0.743826
55 1 8.90534 5.19721 5.3584 0.854083 -1.00003 0.569799
56 1 0.174227 4.37597 4.89268 0.0531788 0.365406 -0.911785
57 1 0.0886306 8.79448 6.47013 -0.675142 -1.06854 -0.1571
58 1 5.08012 3.96316 1.13708 1.60023 0.364905 0.0326169
59 1 0.399907 7.5182 4.7208 0.778992 0.6685 1.00851
60 1 0.578035 5.35096 0.531179 -1.08116 1.25222 -1.50104
61 1 5.57013 9.04489 8.72716 -1.32906 0.971937 -0.651593
62 1 0.322603 0.28205 1.59199 0.426384 -0.0560379 0.127488
63 1 7.30336 6.97906 7.59269 0.0708943 -1.18073 1.46199
64 1 3.41509 5.27316 9.06242 0.944363 0.178966 0.225885
65 1 2.31972 2.49338 8.66143 -0.0158996 0.576849 0.464183
66 1 6.47106 4.89426 9.07464 -0.126083 -0.604433 -0.479255
67 1 6.36104 5.41372 2.3553 -0.130543 -0.708587 -0.746278
68 1 4.29 5.10793 0.162173 -0.351808 0.749807 0.678848
69 1 2.50819 2.95235 0.732798 0.871583 -0.653123 0.627418
70 1 0.0172288 1.57104 3.51626 0.224756 0.419178 0.419983
71 1 7.32541 5.8933 1.27649 -0.206338 -1.12958 -0.853693
72 1 7.11443 4.95306 1.7093 1.37294 1.05584 1.19164
73 1 2.04183 8.48308 1.27999 0.264987 1.53742 -0.39933
74 1 4.69373 5.1935 7.73647 -0.171165 0.648841 -1.2767
75 1 8.34985 9.2564 5.03424 -0.101352 -0.16412 0.501253
76 1 6.81502 7.96254 3.33769 -1.48053 0.188495 0.493368
77 1 4.88853 3.97403 7.79402 -0.543201 0.712241 -0.164377
78 1 2.42718 4.83717 9.07005 -0.152124 -0.85434 0.0558658
79 1 7.73967 7.77264 2.86439 0.832675 0.468814 1.01406
80 1 0.0982936 6.66198 2.82369 -1.16166 -0.100981 -0.600056
81 1 5.77435 0.36169 2.60861 1.5189 0.182219 0.900559
82 1 9.06051 3.09967 7.43989 -0.0998308 0.307202 0.668749
83 1 3.47987 8.69999 4.50964 -0.666033 0.300168 0.900356
84 1 0.844911 4.85261 7.50033 -0.717954 -0.184549 0.201991
85 1 1.96328 2.26544 3.118 -0.159033 -1.05654 0.894043
86 1 3.41214 4.30516 8.6464 -0.746478 1.1928 -0.336767
87 1 9.10965 4.40827 2.26827 0.741859 -0.799542 0.305619
88 1 0.49777 1.79289 1.93372 -0.245145 -0.398437 0.859038
89 1 4.33083 2.1879 1.76408 -0.282711 0.207867 0.250635
90 1 7.32938 6.97258 2.35499 -0.623975 0.135903 -0.89826
91 1 4.47378 2.68147 3.46215 -0.887729 -0.120445 -0.315794
92 1 0.622248 1.21776 8.52683 -0.370653 0.0716928 0.206866
93 1 4.02406 6.0673 2.51495 -0.158375 0.538729 -0.0181886
94 1 4.93806 8.48919 0.927569 0.822187 -1.69837 -0.198378
95 1 6.17897 6.09747 4.13158 1.26129 0.0352333 -0.251116
96 1 4.01718 8.5916 7.63574 -0.0619738 0.498496 0.959217
97 1 5.56355 4.73815 2.78885 0.0884732 -0.400275 -0.460234
98 1 8.39999 8.62903 2.75174 -0.141129 1.67725 -0.59503
99 1 1.11868 0.00117871 2.78089 0.184583 -0.567792 -0.83396
100 1 6.75287 0.0924771 7.79078 0.8637 -0.360184 -0.23688
101 1 8.75212 5.27531 0.850357 -0.0222323 0.87065 -0.0535795
102 1 7.70612 6.51014 8.46758 -0.129222 0.0554874 0.192723
103 1 4.73834 0.537727 2.265 -0.936953 0.723875 -0.034098
104 1 8.72955 0.0615461 1.0411 -0.906308 0.0299805 0.342735
105 1 7.50754 8.7389 8.17809 -0.149732 0.376017 -0.477777
106 1 3.73537 3.26287 7.886 -0.218073 0.304823 -0.305916
107 1 1.49118 7.04004 1.48318 -0.933718 0.249816 1.10713
108 1 9.17929 5.53971 9.18944 1.34448 -0.544014 0.704455
109 1 5.37928 1.6615 6.77568 -0.166072 0.7708 0.148462
110 1 2.76888 7.88678 6.66548 -0.186984 0.198111 0.703402
111 1 2.3375 0.109058 0.798297 -1.18102 0.338122 -1.58878
112 1 1.41172 5.98383 5.12265 0.432455 0.163404 -0.661167
113 1 9.30075 8.98274 7.518 0.14408 0.799927 0.509619
114 1 2.28237 6.49288 4.69947 -0.149718 0.415742 -0.610168
115 1 5.92528 8.50397 7.04919 -0.694412 -0.814335 0.272077
116 1 2.4613 7.81246 2.97031 -0.0211406 0.808315 -0.232768
117 1 7.37061 8.25488 9.24978 -0.317949 0.626414 -0.845838
118 1 0.484298 0.278558 8.16939 1.36086 -0.892006 0.448089
119 1 7.58876 0.0516168 3.00849 -0.462295 -1.43143 1.25597
120 1 7.30329 6.60352 0.140859 0.320826 -0.791929 0.727426
121 1 6.00342 5.77925 8.65788 0.619242 -0.553278 0.148102
122 1 0.102869 8.74985 0.980284 0.615335 -0.565913 0.490631
123 1 1.32059 2.46218 6.8639 -0.241616 -0.398942 -0.800399
124 1 3.53677 6.7561 3.2713 0.0527021 0.254628 -1.8325
125 1 0.701747 2.21887 4.14571 -0.951265 -0.327904 0.992091
126 1 0.383089 6.79445 6.83479 0.876106 0.258502 -0.0670603
127 1 1.62921 0.179553 4.61302 -0.0967337 -0.90207 0.213884
128 1 4.85066 2.89431 5.44655 0.923461 0.401318 -1.149
129 1 4.89266 4.97684 1.05835 0.571575 0.752942 0.727668
130 1 8.28056 0.842817 5.82329 0.474012 1.39514 0.846429
131 1 9.07934 0.804438 5.07717 -0.241818 -0.149697 0.141208
132 1 6.69016 3.6552 4.05252 1.20813 1.54727 -1.0731
133 1 3.73313 3.98277 4.37061 -0.176115 -0.789313 -0.160293
134 1 6.11994 2.30923 0.483354 0.312715 0.556286 0.394505
135 1 8.3333 1.71488 5.17272 -0.66939 -0.869225 0.0636415
136 1 3.82148 5.79227 4.03953 0.252803 -0.184044 1.01066
137 1 2.72828 2.67022 7.70652 -0.401695 -0.610248 -0.0632104
138 1 1.53068 7.01807 5.60302 -0.00667342 -1.20068 0.378847
139 1 0.657909 0.343231 5.08857 0.23602 -0.693627 0.258995
140 1 1.39047 3.79864 3.4387 0.202412 0.071115 0.0379383
141 1 2.47134 3.20571 6.55566 -0.147949 -0.33243 0.518791
142 1 3.54141 3.62026 6.28762 0.7119 0.320845 1.03733
143 1 3.08023 6.21613 8.5681 -1.16661 -0.874894 0.69306
144 1 8.96912 8.50509 1.85638 -0.0419678 -0.00613738 -1.31474
145 1 0.36592 6.443 7.82798 0.468467 -0.581444 -0.481926
146 1 5.74868 9.03845 1.04608 -0.81586 0.181588 -1.22629
147 1 1.27094 7.33701 6.52711 0.631759 0.041036 -0.32534
148 1 8.91091 4.66974 8.51681 0.188959 0.34452 -0.591506
149 1 1.88602 6.72884 2.88565 0.980446 -1.20647 -0.156885
150 1 1.03683 7.283 7.66247 0.0419572 0.765366 -2.02867
151 1 3.91418 8.36246 5.4305 0.571468 1.17607 -0.39889
152 1 4.30427 9.03856 2.68265 0.637348 -0.0934209 -0.806216
153 1 8.95129 2.76954 2.91524 -0.650311 1.4348 -0.372132
154 1 6.00801 6.61156 7.26997 0.442887 -0.384591 0.846948
155 1 5.22377 1.09582 5.57984 0.33351 -0.781274 -1.45387
156 1 3.77135 0.573004 2.8305 0.198725 0.521861 -0.128098
157 1 8.50661 9.3648 8.20027 0.771392 -0.281275 1.10678
158 1 0.588716 8.64499 4.94258 -1.16847 -0.0109361 0.234168
159 1 6.27127 7.69551 4.17165 -0.310054 0.224745 1.3568
160 1 9.05827 1.17542 0.91744 1.32115 -0.280265 -0.647172
161 1 2.46846 5.14396 0.749185 0.0412084 -1.45896 -0.186937
162 1 7.32848 4.5801 8.42714 0.364155 0.061006 -0.0956092
163 1 6.63564 5.24288 8.0514 -0.854878 -0.10454 -0.591537
164 1 1.76379 5.68435 2.82978 -0.0945128 0.896031 0.511279
165 1 3.5905 1.51122 8.70843 -0.225516 1.12554 -0.603035
166 1 8.26404 5.14291 3.97453 0.924019 -0.168193 -1.0895
167 1 0.494676 8.84011 0.0356164 -0.822804 -1.24848 0.234133
168 1 6.98432 4.89033 0.670912 -0.896667 -1.29678 0.886903
169 1 0.118561 5.38262 8.09198 -0.0153697 0.570936 0.14948
170 1 2.46776 7.25653 3.97605 0.72498 1.46478 -1.38494
171 1 1.07661 5.28924 2.16195 -0.359133 -1.11983 0.67497
172 1 6.32709 6.57638 9.18499 -0.157875 0.544259 0.923566
173 1 6.04387 8.94005 2.04515 0.51194 0.230445 -1.69986
174 1 1.83808 3.27335 7.45439 -0.660458 -0.771451 0.730265
175 1 3.97181 9.41087 0.0869898 -0.240219 0.946338 0.315437
176 1 3.4416 7.64606 3.80669 -1.18871 -0.837643 -0.674312
177 1 0.985901 0.427457 9.12533 0.321808 0.0724655 0.223285
178 1 4.23316 6.23483 6.09101 0.467435 0.549924 -0.0400857
179 1 7.16002 4.06925 9.39592 -0.0510842 -0.854043 1.13292
180 1 4.49855 7.20869 6.7462 -0.463624 -0.988004 -0.000643855
181 1 7.7992 5.64931 0.349855 -0.241821 -0.371088 0.532992
182 1 5.61816 8.04066 2.11184 -0.429152 0.677668 0.640919
183 1 4.67085 7.03022 8.63395 0.564058 0.634689 -0.0433231
184 1 8.02534 6.58153 6.73987 -2.05902 -0.528312 -0.857647
185 1 7.76877 1.92424 4.20028 -0.130483 0.620822 1.11276
186 1 7.70279 7.32626 4.93232 0.736474 0.190804 0.273058
187 1 8.08808 4.48277 1.67351 -0.29853 0.717983 -1.34003
188 1 9.26418 6.72426 8.67769 0.032809 0.159076 0.933162
189 1 7.85744 3.4782 4.86903 -0.280969 -1.02355 1.72656
190 1 8.88384 3.71489 3.2696 -0.383028 -1.73302 -0.393411
191 1 6.95481 2.6957 8.39111 -0.327151 0.975532 -0.245782
192 1 8.17181 5.42571 6.78353 0.694233 1.23406 -0.36513
193 1 4.05937 7.11454 5.46382 -0.829533 -0.347445 0.702915
194 1 5.33395 1.03656 7.58003 -0.212061 0.241851 0.739231
195 1 0.391274 8.12758 7.9831 -0.733032 0.0100172 -0.179882
196 1 5.73171 7.02139 1.57004 0.0747867 0.172288 -1.60197
197 1 3.85381 3.33898 5.27624 -1.12141 0.124114 -0.522103
198 1 0.97548 4.65564 6.40608 -0.512594 -0.67855 -0.685035
199 1 8.35971 5.82258 5.83799 -0.269693 -0.248809 0.027368
200 1 4.75662 7.87212 5.23497 0.193805 0.404595 -0.672476
201 1 0.276975 3.24853 0.664772 1.20685 -1.09343 1.6818
202 1 9.04638 3.49348 4.29023 -0.398129 0.231432 -0.758666
203 1 9.39593 5.65911 6.21198 -0.151392 -0.309695 -0.229083
204 1 6.8847 1.78283 4.7116 -2.12778 -1.15836 -0.587815
205 1 1.23735 9.00661 6.54985 -0.596534 -0.157421 0.507954
206 1 4.87405 9.15427 3.9156 -1.07844 -0.704791 -0.854965
207 1 7.28877 4.91086 7.36676 -0.0309947 -0.419822 1.18978
208 1 1.56848 3.86667 6.14825 -0.101377 -0.186123 0.469334
209 1 6.63364 7.49664 1.51095 -1.69695 0.320235 0.821164
210 1 1.44683 5.33604 8.85361 -0.274137 -0.773598 0.299418
211 1 3.79187 2.28516 5.16729 -0.110651 0.745934 0.611126
212 1 3.81847 4.04578 1.81609 1.36243 1.0926 0.0265004
213 1 4.03104 2.68081 6.12567 1.4201 -0.396283 0.998259
214 1 0.898063 6.47655 0.336911 0.0264037 -0.0721205 -0.585471
215 1 7.02955 7.26539 8.82181 -0.711086 -0.0872328 -0.0174923
216 1 3.64149 2.659 8.83973 -0.775081 0.900186 0.531652
217 1 5.63273 1.11625 1.94871 -0.486023 0.284885 0.367191
218 1 0.194135 3.0526 8.31982 0.642314 0.039921 0.0967091
219 1 4.747 2.24583 0.751358 0.331772 0.949744 0.715096
220 1 8.62955 3.52788 8.38261 -0.516664 -0.312079 0.759996
221 1 6.43607 2.72376 3.44995 0.116909 -1.98474 -0.466796
222 1 5.29507 5.18003 6.73901 0.0939296 0.719299 0.0966896
223 1 8.63783 5.31974 1.92523 1.44692 0.295227 0.308316
224 1 5.7429 7.7818 0.920631 0.727344 0.203567 0.113486
225 1 2.64751 1.78885 3.80752 -0.402681 0.309593 0.577788
226 1 8.17783 7.41742 6.0837 -0.0775531 -1.01529 -0.618798
227 1 2.95878 4.07395 2.59827 -0.741845 -0.703714 0.407127
228 1 8.60836 8.30957 7.90197 -0.352291 -0.246833 -1.03437
229 1 3.14861 7.51567 0.388715 -0.0723784 0.909968 0.623047
230 1 3.53916 0.540373 6.82466 0.453026 -0.0478069 0.85339
231 1 3.70563 7.46718 7.32088 -0.0886374 -0.0462655 0.511563
232 1 1.59318 8.21549 7.95838 0.922207 -0.0169331 0.406751
233 1 7.84211 7.61337 8.25581 0.00842375 -0.985516 -0.429805
234 1 5.25605 2.67255 9.26532 -0.230161 -0.110956 -0.240942
235 1 0.912106 5.3122 4.54426 -1.25904 0.0456185 -0.496345
236 1 7.3695 5.87716 6.21159 0.373324 0.56149 -0.434944
237 1 7.49861 3.35752 6.96369 -0.412022 0.400751 0.333592
238 1 4.22708 1.87243 9.37356 0.162829 1.53508 -0.561687
239 1 9.04611 4.31876 1.16186 0.392709 -0.467797 -0.888363
240 1 4.65379 8.91385 4.87182 -0.0878965 -0.0824617 1.18792
241 1 5.59832 6.05677 3.19512 0.793364 -0.464506 0.314725
242 1 8.03591 3.24186 2.90422 -0.601439 -0.24213 -0.339035
243 1 1.15102 0.861689 2.04274 0.259653 0.171879 0.61289
244 1 7.92076 4.02575 7.79147 1.08486 0.595207 1.14228
245 1 7.13874 4.9083 2.81084 0.361794 -0.649549 0.758925
246 1 2.57374 6.92203 9.26142 0.481865 0.0671199 -1.1088
247 1 1.32736 2.02702 1.40253 0.3272 -0.630658 0.364161
248 1 9.29145 8.74951 8.59945 -0.129434 0.961166 0.490878
249 1 1.45733 7.20878 4.48907 -0.823747 0.239994 -0.992625
250 1 2.18378 8.90293 2.59061 0.126111 0.170134 1.32261
251 1 2.11175 7.27578 7.43307 0.461155 -0.821964 0.0599424
252 1 3.63034 3.3328 3.51297 0.086521 -0.578841 -0.309925
253 1 0.862542 6.22983 6.04325 1.43493 1.33095 0.190415
254 1 5.23563 1.45567 4.04639 -0.825576 1.04675 -1.76297
255 1 8.9185 8.13439 0.181439 -0.343209 0.69081 -0.493702
256 1 8.94141 7.66149 8.61564 0.428679 -0.367007 -0.649192
257 1 4.69258 0.625397 4.68427 -0.102862 -0.00367781 0.85535
258 1 4.17473 1.62596 3.009 -0.0349811 -0.128191 1.84272
259 1 2.856 5.66376 1.50222 0.44119 0.598535 1.57399
260 1 5.13149 8.64316 7.76567 0.205391 -1.01585 0.0268267
261 1 5.05213 1.60851 8.72813 1.59431 0.73902 -1.11532
262 1 3.35694 4.53969 3.44468 0.183516 -0.0756379 -0.823
263 1 5.25136 4.02658 5.42889 0.0284613 -0.866842 0.824479
264 1 5.9909 2.67383 2.36813 -1.52257 -0.0377278 -0.14121
265 1 7.33239 5.69469 3.8081 -0.956792 -0.588163 -0.951996
266 1 8.44742 6.29801 2.40472 -0.176664 -0.315762 -0.0270943
267 1 3.61049 8.40076 0.0649474 0.0177135 1.07494 0.0190479
268 1 5.85405 3.21644 6.6949 0.610279 -1.68996 -1.23696
269 1 8.37433 6.06347 1.31767 0.963715 1.53492 0.146533
270 1 8.03291 3.19446 5.96083 -0.406572 -0.877698 0.405722
271 1 2.87429 0.307765 3.32531 -0.0100988 0.421792 1.81707
272 1 6.30651 4.01287 5.75087 0.317174 0.0317919 -0.929457
273 1 8.79128 6.03295 3.39818 0.0360605 0.297774 -0.782759
274 1 6.51817 3.28895 0.596696 -0.692003 0.535321 0.741592
275 1 2.67876 8.24467 7.84064 0.480738 -0.382852 0.10749
276 1 5.41198 7.19904 9.24466 -1.55638 -0.365576 -0.700929
277 1 6.04356 4.53052 4.88683 -0.303182 0.911987 -0.928153
278 1 1.21568 4.87579 1.17877 0.15325 -0.187607 0.750689
279 1 9.38926 7.17141 0.336568 0.371578 0.363768 1.72536
280 1 5.70563 0.0855167 7.79309 -0.151359 -0.1856 0.617415
281 1 6.09658 6.98459 3.41463 -1.2527 -0.498676 -1.28312
282 1 3.23404 6.5738 4.31883 -0.422749 1.20089 0.500386
283 1 9.01573 6.61776 6.092 0.511415 0.0143928 -1.38949
284 1 3.80828 0.49615 8.66063 0.107408 -0.0243906 -0.84662
285 1 4.594 4.63207 8.57115 0.690728 0.614284 -0.723149
286 1 2.51021 0.781322 7.24125 -1.44081 -0.189735 0.929588
287 1 8.65975 3.46359 2.12966 0.223781 0.29328 0.0637993
288 1 3.84376 0.0392825 1.8711 -0.878289 0.249227 -0.698196
289 1 6.38387 4.34542 2.24493 -0.163581 0.468839 0.00863827
290 1 2.41972 5.10047 3.56343 0.98496 -0.549347 -0.175144
291 1 1.34502 0.609803 7.09231 0.359222 -0.332389 0.589239
292 1 1.9455 5.09827 4.80523 0.337605 -1.42175 -0.177139
293 1 3.42497 7.61833 4.79887 0.428705 -0.397068 1.10262
294 1 3.75649 6.3969 7.02451 0.0864638 0.804251 -0.576718
295 1 3.61179 6.01461 5.22586 -0.0426047 -0.359791 0.334942
296 1 5.33962 3.33748 4.6898 0.384075 0.243866 -0.130235
297 1 4.24027 3.49696 9.06354 0.213815 0.443885 1.12524
298 1 7.94779 2.39199 0.654787 0.838556 -1.08731 0.604059
299 1 0.6722 7.95123 1.58303 -0.333702 0.957671 1.31189
300 1 6.19523 1.52532 1.12462 1.4869 -0.912138 -0.296007
301 1 0.688939 2.11159 7.94703 0.333557 0.0837717 -0.616974
302 1 6.5139 8.33963 6.09621 -2.04404 0.973817 -0.778892
303 1 4.61007 4.43387 6.88659 -0.502335 -0.0129651 1.00429
304 1 6.51637 1.21544 0.175473 0.432484 -0.671469 0.195234
305 1 1.50612 4.60263 0.228491 0.580135 -0.210781 -0.206458
306 1 8.67605 0.281274 6.98561 -0.628384 0.356714 0.169986
307 1 4.66603 6.48943 1.68398 -1.35644 0.0295672 0.278091
308 1 6.1504 8.82362 3.70358 -1.46486 -0.910318 -0.731483
309 1 3.55345 5.05733 4.93605 0.962011 -0.199365 -0.190506
310 1 9.17843 2.43163 4.04299 -0.691012 -0.86025 -0.067829
311 1 5.67395 2.31587 8.25317 0.86604 -0.346065 -0.0510339
312 1 4.22616 7.09339 2.52231 -1.53097 1.0046 0.241388
313 1 9.1483 7.71259 1.17941 1.04625 1.26533 -0.0409432
314 1 5.59266 4.71937 8.28636 -0.106179 0.308502 0.0257203
315 1 5.99814 5.94823 6.49581 -0.458934 -1.1951 0.469098
316 1 1.27432 8.44748 3.09778 -0.36942 0.112162 -1.16082
317 1 3.729 2.92169 0.571157 -0.326715 1.02608 -0.732129
318 1 0.285612 2.80242 5.34458 -0.625159 -0.667658 0.332638
319 1 7.53972 8.21874 6.53166 -0.877949 -0.412505 -0.887216
320 1 8.17799 2.36698 2.3471 0.464295 0.273943 0.433166
321 1 4.71605 8.65876 5.99502 -0.314385 0.890079 0.639985
322 1 0.335133 0.494336 7.05246 -0.860498 -1.18444 0.0890933
323 1 3.33223 5.54149 3.2251 0.246408 0.446038 0.0289449
324 1 5.49035 1.52134 0.267147 0.314686 0.416685 -0.412785
325 1 4.74874 1.88421 4.98985 0.716916 -0.598907 0.0502698
326 1 7.71921 0.0130184 7.40645 0.184768 0.413674 0.71266
327 1 0.876047 7.06173 8.92438 0.587124 0.0809815 0.203689
328 1 4.69564 5.47543 1.93107 0.179934 -0.125988 1.51288
329 1 1.8599 3.53016 4.55439 -0.300295 -0.597941 0.323151
330 1 3.44582 2.50309 4.20346 -0.141477 0.490334 0.144609
331 1 4.57416 3.67726 6.08783 -0.492598 0.00649355 -0.419172
332 1 1.55089 4.196 7.15134 0.232954 0.822132 -0.490155
333 1 6.4499 6.49322 0.864628 0.306302 -1.59783 -0.1103
334 1 3.62837 0.084813 7.7573 1.19775 -0.223416 1.52156
335 1 3.69065 1.71407 1.01939 0.330757 0.707369 0.918942
336 1 0.886192 0.465663 6.11695 0.431383 0.93139 0.119821
337 1 8.77502 3.58318 0.22297 0.82825 -0.399675 0.374991
338 1 5.79457 1.97112 3.22172 1.49732 -0.983731 -0.368881
339 1 8.25959 8.55434 8.80406 0.374278 -0.0945111 0.949951
340 1 2.80063 5.00917 2.55051 -0.103717 -0.752301 0.868551
341 1 1.42284 1.15271 0.249141 -0.456506 0.181516 0.569702
342 1 3.64019 8.01167 8.43871 0.936017 -0.492145 -0.391862
343 1 2.17261 3.29201 2.77043 -1.30226 -0.157756 0.0798729
344 1 3.06833 0.907193 4.62962 -0.31063 0.486166 1.20843
345 1 6.99836 8.41447 4.21708 -1.24742 0.153915 -0.254487
346 1 0.631681 5.71214 7.03905 0.0747192 -0.554137 1.09329
347 1 8.93816 4.16815 7.59595 -0.466951 0.57634 -0.689759
348 1 5.24911 3.06666 7.57799 -0.141356 0.93055 1.04364
349 1 4.0083 1.12013 1.88044 0.526732 0.0985644 -0.189186
350 1 4.79897 3.67667 3.66894 0.714807 -1.03167 0.0577724
351 1 7.09747 9.17065 1.98435 0.33723 -0.26215 -0.0911914
352 1 5.23627 5.30811 9.0187 -0.047154 -0.0488727 -0.822177
353 1 1.32778 1.13888 4.62572 1.25128 0.775911 -0.417084
354 1 2.83923 0.540208 8.31108 1.2714 0.22863 1.15222
355 1 8.98146 3.64813 6.52856 -0.437378 0.769452 -1.01205
356 1 0.557766 4.22709 0.606875 0.918916 -0.891308 -0.38009
357 1 5.58633 2.99348 1.09888 1.18194 0.307501 0.182329
358 1 1.06788 8.87196 8.59452 0.50872 0.258176 0.511497
359 1 3.1126 3.64158 1.26108 -1.50488 0.782205 0.832491
360 1 5.87213 3.02519 5.56009 0.63145 0.25953 -0.740102
361 1 3.40085 1.90319 2.19687 0.262524 0.273907 0.410627
362 1 6.55039 3.27597 1.71982 0.660627 -0.661805 0.388329
363 1 8.29556 7.20256 1.80346 -0.374353 0.486186 -0.661479
364 1 4.39419 1.2255 8.02424 -0.476007 -1.13367 0.656859
365 1 1.25832 8.81904 1.87488 0.206857 0.0151564 -0.52888
366 1 6.67934 7.98212 5.08704 -0.694997 0.336995 0.218776
367 1 7.80319 0.946189 4.69922 0.642033 -0.671061 -0.183032
368 1 2.4789 7.36831 1.4054 0.372077 0.679954 -0.11526
369 1 7.59314 2.3837 5.3827 0.449621 -1.179 -0.35574
370 1 4.7727 1.26313 1.27315 -0.800125 -1.40887 0.00382325
371 1 8.20674 0.867497 2.67703 -0.600066 0.443308 -0.626111
372 1 5.08226 9.25849 0.192145 0.145121 1.31293 0.516292
373 1 7.89067 0.888877 6.70868 0.0780609 0.552566 -0.784683
374 1 6.93219 6.81974 3.97975 0.310455 -0.390331 -0.323401
375 1 5.19088 5.84539 5.72171 0.128753 -0.358893 0.783671
376 1 2.54177 1.69294 7.97407 -1.05841 1.24511 -0.536037
377 1 2.81297 5.24658 8.19123 0.795386 -0.360221 -0.788806
378 1 8.29624 9.38976 2.03922 -0.23175 1.09307 0.0622694
379 1 8.91195 3.50473 5.32865 0.507144 0.368424 -0.201841
380 1 8.63745 7.21137 3.0349 0.728248 -0.550665 0.889533
381 1 1.64474 5.30734 6.9511 0.285055 -0.744457 0.0645798
382 1 6.62945 2.02078 1.95983 -0.12457 -0.220655 0.630859
383 1 7.03718 2.53448 1.11868 -0.327245 0.198627 0.17457
384 1 7.24359 8.25908 1.19487 -0.337554 0.475243 0.112511
385 1 5.02424 8.95137 1.90213 -0.798813 -0.622428 -0.965519
386 1 0.37355 2.20047 0.927559 -0.740755 0.23294 0.954373
387 1 7.45447 1.72445 2.58669 1.32817 0.895939 0.124898
388 1 4.87659 6.05023 8.40867 -1.15576 -0.0585918 0.932564
389 1 7.38059 3.98448 5.98436 0.96837 -0.536783 1.09994
390 1 8.53467 4.44917 4.75781 0.578638 -0.511452 0.667074
391 1 4.74826 0.836742 0.293718 1.04748 0.142379 -0.70682
392 1 2.23328 0.887868 4.02671 -0.259685 -1.37276 -0.458658
393 1 4.69003 0.233833 7.76764 0.77981 0.144711 -0.391522
394 1 0.00349851 4.43718 6.07375 -0.562598 0.388215 -0.203013
395 1 8.1043 5.19844 8.90502 0.605271 0.650295 -0.828813
396 1 2.80783 1.87356 5.25843 0.302795 -0.193297 -0.105551
397 1 6.87332 3.26196 5.13681 1.37482 0.80623 -0.466838
398 1 7.42956 6.91921 1.16097 0.265371 0.842562 -0.158275
399 1 1.91395 1.60828 2.25661 -1.9137 -0.630784 0.393995
400 1 6.98867 8.08221 2.3127 -0.551314 -0.406348 0.13923
401 1 3.43422 1.82826 6.05678 -0.0585409 -0.685826 -0.866901
402 1 7.45021 0.263631 5.44318 -0.61924 -0.177707 -0.30002
403 1 0.707128 3.01034 1.54584 -0.163102 -0.297589 0.609883
404 1 5.26674 7.03418 2.62251 0.200425 -0.62476 1.19029
405 1 4.01445 1.70566 6.97775 -0.403928 -0.0518664 0.204936
406 1 2.22989 4.12628 5.33397 -0.462881 -0.62673 -0.738063
407 1 5.41691 8.31482 0.051607 0.0810186 1.37062 1.87139
408 1 4.6336 2.78704 8.38735 -0.667161 0.394781 0.00033909
409 1 2.81342 1.38115 2.8543 0.652186 0.211108 -0.172448
410 1 0.517582 3.97789 7.01461 0.234297 0.346334 0.0215176
411 1 6.64324 8.96723 5.25026 -1.0034 -0.804385 0.364696
412 1 5.6445 0.37263 3.65168 -1.0215 0.421037 -0.644804
413 1 2.03558 7.6435 0.515259 -0.00403822 0.280674 -1.00868
414 1 1.43233 7.48383 3.45466 0.239848 0.204655 -0.305354
415 1 1.43683 3.86073 1.11273 0.124341 -0.336523 0.239104
416 1 0.0544672 8.70334 3.49817 1.15898 -1.09471 -0.565399
417 1 1.41566 7.99399 5.03197 -0.603599 0.529862 -1.02576
418 1 3.32459 0.429573 1.00557 -0.818575 -0.108198 -0.192589
419 1 7.58551 2.43881 3.31745 -0.787219 -0.33477 -0.212584
420 1 0.0244891 1.9494 4.89174 -0.145612 -0.49184 -0.509631
421 1 7.96837 8.29286 1.85378 -0.923637 -0.173374 0.359561
422 1 3.08783 2.75383 5.75494 0.264134 0.852602 -1.1391
423 1 8.07554 7.30945 9.2199 -0.86029 -1.02564 -0.509848
424 1 7.53754 8.42278 5.48543 0.349585 -0.339731 -0.885667
425 1 1.7823 1.98898 5.40211 0.390616 1.92382 0.460515
426 1 8.9443 0.795153 8.56734 0.726918 -0.131327 -0.359933
427 1 6.45592 5.75872 5.55464 -1.25246 1.2103 0.240151
428 1 3.50637 2.70186 6.95459 0.16557 0.455369 -0.374933
429 1 4.69583 3.23802 0.492206 0.721979 -0.578471 0.124507
430 1 2.28941 8.86595 6.14123 0.156851 -0.305906 0.299968
431 1 9.33526 7.37456 7.50757 -0.477012 -0.54768 -1.50751
432 1 6.13587 0.771372 6.8528 -0.0727752 0.859392 0.277202
433 1 3.72584 2.21313 7.84949 -0.11835 -0.156963 1.17728
434 1 4.78481 4.42725 2.1932 0.261045 0.993432 -0.870583
435 1 1.953 0.630777 2.80807 0.612262 0.434889 -0.349672
436 1 2.13587 3.34597 9.26401 -0.366533 -0.810801 -1.07445
437 1 8.246 5.04728 7.73934 0.474996 0.310978 1.32089
438 1 1.64713 9.03486 0.0667231 0.250976 -0.0511551 -0.235333
439 1 5.17721 6.27473 4.20762 -0.426656 -1.14027 -1.06705
440 1 0.607514 4.51633 2.71504 -0.300857 0.834353 -0.375229
441 1 9.07505 0.688589 2.28282 0.815564 0.9138 -0.976922
442 1 4.88608 6.91909 0.734762 -0.320622 -0.460486 0.191097
443 1 3.93793 6.64711 8.08164 1.06781 0.630234 0.404153
444 1 7.84083 6.51217 4.28548 0.276676 0.911924 0.843825
445 1 4.9044 0.417256 8.70662 1.2407 0.385971 1.16787
446 1 7.3598 5.87194 2.31758 -0.250399 0.9163 0.0493631
447 1 0.990848 7.45793 0.543727 -0.193085 -0.373735 -0.140864
448 1 4.53748 7.74537 7.921 -0.509632 0.940297 -0.771767
449 1 2.28788 1.48135 8.88929 -0.608955 0.645537 -0.117123
450 1 2.08966 9.22187 7.15699 -0.680242 -0.944725 -1.85532
451 1 6.91024 0.636398 8.76145 -0.230579 -0.849663 -0.107915
452 1 5.64701 6.70936 8.29248 0.374365 -0.394176 -0.136126
453 1 5.40586 7.86366 8.46147 -0.0514101 1.59097 1.06385
454 1 5.74081 6.49863 5.1507 1.26313 1.36626 -0.671787
455 1 4.25811 5.47935 6.79188 -0.866945 0.246122 -0.26217
456 1 0.962164 6.31475 2.25989 -0.268589 0.641131 -0.125381
457 1 4.83431 4.17233 0.0436672 -0.253723 -0.45109 -0.743202
458 1 8.62758 7.43584 4.47697 0.417994 -0.073025 -0.882093
459 1 2.93563 7.08972 2.35502 0.136196 -0.568988 -0.213783
460 1 8.13417 2.61221 9.04306 0.070485 -1.2926 -0.00488231
461 1 8.95727 4.89148 3.2297 0.148004 -1.36545 1.21406
462 1 0.962479 6.62854 3.32123 0.157807 0.992957 -0.85862
463 1 2.06259 0.511999 9.11425 1.20023 -0.425306 -1.40499
464 1 9.36534 6.20816 0.887576 -0.350597 -0.875203 0.260198
465 1 1.71663 7.89982 2.16066 0.183892 0.00369252 -1.11065
466 1 8.09638 7.80022 0.906239 -0.810134 0.432311 0.0335847
467 1 5.18141 1.17855 2.99318 0.884623 0.885918 -0.942126
468 1 6.718 8.90557 2.87508 1.18597 0.56284 0.181875
469 1 2.40429 2.02341 1.30833 0.664222 0.494208 -0.0492603
470 1 6.99748 5.38671 4.7242 0.422464 -2.16548 -0.0229858
471 1 2.48009 8.56842 0.294862 -0.684878 1.32862 0.761087
472 1 2.33504 7.01319 6.2961 -0.642944 0.366814 -1.0572
473 1 8.95243 1.22346 6.80179 -0.597154 0.17865 0.0218731
474 1 6.72469 1.72412 8.68066 1.22659 -0.566929 0.485557
475 1 4.43382 8.79415 8.5462 -1.11002 -0.209184 -0.552254
476 1 2.85396 5.57594 4.36348 0.533944 0.579554 0.296651
477 1 8.58135 6.79774 7.68244 -0.0349122 -0.25305 1.2414
478 1 5.81252 9.33176 4.61084 0.178044 -1.20894 0.925034
479 1 7.37798 0.793685 2.07637 0.712785 -0.596527 -1.08673
480 1 6.03665 6.86927 6.08776 -0.54391 0.556027 -0.155592
481 1 2.66178 4.34855 4.45643 -0.226948 -0.217084 -0.749052
482 1 4.53335 6.25876 5.09964 -0.312525 -0.0735859 0.0897876
483 1 1.15343 5.1443 3.46049 0.591959 0.884362 0.918008
484 1 0.268542 3.75056 9.11413 -0.959119 -0.974111 -0.50528
485 1 6.71641 5.87221 7.26897 0.432551 0.547218 0.35528
486 1 1.77558 4.63755 2.78572 0.321156 -0.375396 -1.04594
487 1 0.727476 6.49954 4.34397 -0.0368988 0.345846 0.429197
488 1 6.66239 2.2318 5.63165 0.150166 -0.37913 0.885832
489 1 6.4516 8.4952 0.554407 0.281861 -0.186219 -0.526475
490 1 5.51541 5.98706 2.17802 0.796113 -1.47175 -0.769966
491 1 4.55577 5.4278 3.09943 0.505273 -0.475119 -0.606476
492 1 1.45473 8.96446 5.54938 0.720082 0.30636 -0.94524
493 1 7.99949 4.46112 0.576368 1.01886 1.85059 0.586336
494 1 4.21303 4.06714 2.90841 -0.897254 -0.0649248 -0.982551
495 1 3.10519 8.25211 1.02457 0.548813 1.07038 0.676021
496 1 2.66481 0.0951113 5.47109 0.726557 -1.45305 -0.485849
497 1 6.40059 7.6649 6.85826 0.61968 0.450582 -0.481056
498 1 2.61512 1.16857 0.47254 -0.125251 -0.637977 0.901973
499 1 3.64396 3.03756 2.41025 -0.960795 -0.646446 1.08194
500 1 6.68967 6.43782 8.19693 -0.176154 -0.0677415 0.753051
501 1 5.75767 4.11172 3.75336 0.0382447 0.206523 0.624438
502 1 7.88458 4.05049 3.94099 -0.435673 -1.45497 -0.247979
503 1 3.40325 1.18422 7.71866 -1.28372 0.126111 0.429039
504 1 2.92901 0.506743 2.2917 0.150245 0.0616493 0.46034
505 1 7.73978 3.29736 0.305155 0.789274 -0.81087 -0.109132
506 1 5.51983 5.77096 7.70204 0.390844 0.171352 0.0420393
507 1 5.46652 7.57841 7.28269 0.803267 0.282253 -0.730288
508 1 0.835757 8.19395 4.04397 0.30971 0.255647 0.774555
509 1 3.27094 2.71836 1.58229 -1.01611 0.178745 0.998246
510 1 5.7605 4.68219 0.503423 -0.386599 0.832814 0.116413
511 1 6.18448 1.71062 7.51283 0.166861 -0.167805 -0.643139
512 1 1.9454 6.18804 1.92429 -0.556406 -0.195073 -0.180647
513 1 4.71522 7.68385 1.57014 0.723628 -0.174724 0.668556
514 1 8.11402 5.41661 2.95976 0.705982 0.0831823 0.602001