ITEM: TIMESTEP
220
ITEM: NUMBER OF ATOMS
1000
ITEM: BOX BOUNDS pp pp pp
0.0000000000000000e+00 9.4000000000000004e+00
0.0000000000000000e+00 9.4000000000000004e+00
0.0000000000000000e+00 9.4000000000000004e+00
ITEM: ATOMS id type x y z vx vy vz
1 1 4.70413 0.132399 1.1999 0.36825 0.540415 0.591784
2 1 7.83238 2.91674 7.75632 -0.13997 1.19069 -0.486819
3 1 0.359324 3.16292 3.58753 0.545219 0.407561 -0.046688
4 1 0.770993 8.16595 7.01639 -1.08988 -1.1074 -0.235797
5 1 5.54642 2.14153 5.78925 0.106472 -1.25218 -1.0866
6 1 7.2702 7.34741 5.88298 0.459531 -0.48345 -0.0350311
7 1 1.17931 8.47769 0.903699 -0.450019 0.11804 0.569944
8 1 2.10039 2.16766 6.01453 -0.354773 -1.22433 -0.248717
9 1 1.19609 2.84151 4.78251 1.71174 -0.839614 -0.142155
10 1 2.96705 8.9944 1.64645 -0.306998 -0.793432 -0.290702
11 1 8.51745 6.97997 0.610056 0.749397 -0.814152 1.159
12 1 7.00336 2.99635 2.58923 0.621347 -0.66763 0.910653
13 1 8.10717 1.65082 6.19411 0.950813 -0.523354 -0.13574
14 1 3.76807 6.1894 1.68483 0.323016 1.36151 -0.942608
15 1 7.77019 3.23417 1.53209 -0.0516443 -0.858922 -0.300611
16 1 1.20997 3.14401 8.49978 0.489232 0.189304 -0.20884
17 1 8.14918 4.298 6.7831 -1.34007 -0.166978 -1.05732
18 1 0.203415 3.46967 2.54278 -1.3962 -1.0038 1.36136
19 1 6.20321 2.87996 9.0196 0.0863936 0.43745 -0.945358
20 1 4.17735 3.38508 7.04484 -0.105308 -0.139163 1.06438
21 1 1.82805 5.04821 5.805 -0.635201 -0.284674 -0.536231
22 1 2.95934 3.50541 4.92587 -0.522077 -1.04314 0.313713
23 1 5.20997 3.60129 8.78104 0.752078 1.25147 -0.158964
24 1 2.48356 4.01117 8.19059 -1.02946 1.41465 0.0623443
25 1 6.21786 2.76347 7.55905 -1.09694 -0.507773 -0.618652
26 1 2.13377 3.10274 5.33384 -0.146348 -0.0111937 -1.17737
27 1 8.34046 0.886279 7.82395 0.678151 0.159719 -0.389998
28 1 4.46153 6.37181 3.42282 -0.486143 0.0017076 -0.138893
29 1 3.12929 9.35061 0.0228701 -0.839722 1.04327 0.0266275
30 1 7.37425 2.87512 4.31673 0.650137 -0.743965 -0.576348
31 1 8.79447 2.98487 1.19748 0.17663 0.650924 0.769531
32 1 4.24191 0.382536 5.76102 0.770651 0.5843 0.326484
33 1 1.77621 7.20916 8.38865 0.578503 -0.092935 -0.316556
34 1 3.61119 7.29223 1.60788 0.167703 0.514204 0.0740476
35 1 9.23373 0.623862 6.04456 -0.162633 -0.929956 0.250551
36 1 6.53115 6.41413 1.86412 0.46463 0.318612 -0.116751
37 1 8.56836 1.5408 9.31903 0.043379 -0.213662 0.515546
38 1 1.21407 1.50905 2.909 1.22221 -1.29889 -0.436483
39 1 0.354871 0.945745 4.22711 -0.318336 -0.114292 0.506567
40 1 2.41636 4.00056 0.473415 0.0303501 -1.43933 0.593878
41 1 6.14861 9.26682 6.19617 0.0201007 -0.556681 -0.728299
42 1 1.39676 1.89766 8.89601 0.068675 -0.479484 -0.135928
43 1 2.07808 2.9401 1.56678 -1.14293 0.376365 0.450255
44 1 7.31607 1.40744 5.58373 0.340718 -0.13284 0.447662
45 1 6.34471 2.29753 6.60552 -0.351878 -0.591811 0.119018
46 1 7.7455 6.595 3.22344 -0.296252 -0.293554 -0.233301
47 1 6.1886 5.7674 0.254473 0.361476 0.106903 0.0601104
48 1 7.66635 7.49958 3.88197 0.316433 0.21865 0.37734
49 1 3.4473 4.55619 6.69777 1.82845 0.354836 0.32422
50 1 8.69737 7.92679 3.59834 -1.65077 1.07478 -0.916637
51 1 6.33934 7.32106 2.60497 1.42125 0.9228 -1.04853
52 1 1.06838 3.6274 0.00810621 0.904752 -0.292344 0.0134075
53 1 5.37861 2.83474 3.23407 -0.507014 0.000410148 -0.20942
54 1 -0.000225053 6.20511 5.29204 -0.147273 -0.921309 -1.37521
55 1 8.9406 5.23734 5.4271 -0.277841 0.345656 -1.39574
56 1 0.134771 4.39484 5.14074 -1.18586 0.313837 -0.886847
57 1 0.148868 9.04372 6.41905 -0.256475 -0.202311 1.04689
58 1 5.08587 3.9973 1.22479 1.60348 -0.824712 0.596503
59 1 0.481473 7.35393 4.78124 -0.0339594 0.370315 0.34026
60 1 0.387449 5.4886 0.466578 0.952694 0.88325 -0.011273
61 1 5.52838 9.00354 8.73618 0.485571 -0.680459 -0.886487
62 1 0.331184 0.191957 1.60573 0.109695 -0.352379 -0.0880009
63 1 7.3444 6.96021 7.57153 0.873275 -0.224828 0.248526
64 1 3.39924 5.21474 8.98371 -0.509222 -1.0307 -1.29549
65 1 2.31519 2.50658 8.72969 0.262 -0.0315231 -0.577666
66 1 6.28094 4.83078 9.07447 0.54485 -0.304325 -0.599945
67 1 6.32627 5.4929 2.37092 -0.245867 -0.763556 0.0326565
68 1 4.29873 5.20606 0.25099 -1.34392 0.869701 -0.282546
69 1 2.6545 2.94812 0.647109 -0.0527326 -0.118163 0.494594
70 1 0.158195 1.51598 3.29067 -0.470676 -0.00722974 1.20656
71 1 7.35003 5.86615 1.27332 -1.58353 -0.149266 -0.689861
72 1 7.0814 4.97483 1.74413 1.94285 -1.38611 -1.4723
73 1 2.12229 8.49128 1.30644 -0.239309 -1.49185 0.702572
74 1 4.78031 5.02887 7.74412 0.657274 0.0507949 -0.458296
75 1 8.30097 9.23111 5.0369 0.848498 -0.558621 -0.201052
76 1 6.86533 7.93072 3.26568 0.0244165 -0.0900175 -0.134077
77 1 4.86041 3.9843 7.84805 -0.584629 -1.2786 -0.901187
78 1 2.40162 4.88113 9.05351 -0.467494 0.138703 0.0853953
79 1 7.83173 7.70246 2.81688 -0.260325 2.00634 0.253922
80 1 0.179127 6.4376 2.74562 -0.48353 0.646204 0.748717
81 1 5.86977 0.260687 2.54967 0.487684 -0.261886 -1.15059
82 1 9.23151 3.16234 7.40717 -1.46027 -0.888188 0.171726
83 1 3.49462 8.52397 4.42684 -0.620832 0.618761 2.3021
84 1 0.837521 4.8802 7.35168 0.161457 -0.781024 -0.0512072
85 1 1.97624 2.27534 3.03252 0.209634 0.146752 -0.584429
86 1 3.42078 4.30068 8.58988 1.17023 -0.277656 -0.291612
87 1 9.11815 4.43343 2.30927 0.141629 -0.757423 0.344699
88 1 0.587869 1.77447 1.98396 0.28997 0.446664 -0.815842
89 1 4.32714 2.06824 1.75584 -0.241372 0.849832 -1.0175
90 1 7.36119 7.02103 2.27317 0.0535086 -0.527239 -0.638313
91 1 4.39278 2.583 3.38158 0.783358 1.76376 0.529009
92 1 0.62528 1.22602 8.57318 0.815794 0.380403 -0.775212
93 1 3.96034 5.95206 2.66411 -0.217681 -0.336532 0.589236
94 1 4.84696 8.43398 1.07402 -0.27427 1.32522 0.099939
95 1 6.27735 6.11645 4.1863 -0.717704 -0.344084 -0.812291
96 1 3.8098 8.61348 7.54977 -0.228408 0.152738 -0.278729
97 1 5.62762 4.84085 2.8481 0.502057 0.881962 -0.198414
98 1 8.62214 8.53941 2.70648 0.904922 0.526512 0.601663
99 1 0.981244 0.051719 2.76724 -0.920928 -0.336685 0.00501471
100 1 6.76223 0.130482 7.92914 0.390616 0.315148 -0.226344
101 1 8.77465 5.16336 0.933983 -0.280726 1.40819 -0.372361
102 1 7.66991 6.43806 8.46164 0.0676436 0.528164 -0.829501
103 1 4.81599 0.523204 2.26216 -0.13943 0.816521 -0.637492
104 1 8.70883 0.138792 1.08221 0.055939 -0.377748 -0.328028
105 1 7.46927 8.88736 8.35572 0.0075481 0.0842736 -0.122098
106 1 3.76563 3.07089 7.88468 0.187091 -0.0828388 1.46753
107 1 1.34236 7.03589 1.57173 0.719503 -0.490463 -0.874829
108 1 9.04631 5.44204 9.18794 0.122543 -0.160165 -0.233677
109 1 5.52446 1.55828 6.73624 0.254224 -0.566043 -0.288816
110 1 2.76695 7.80684 6.7803 0.963687 0.694565 1.50415
111 1 2.35778 0.190315 0.82196 -0.302885 0.606983 -0.742685
112 1 1.375 6.02832 5.15956 0.069817 -0.358776 0.091628
113 1 9.36506 9.0195 7.51162 0.736472 -1.68134 0.0432254
114 1 2.18133 6.30143 4.62849 0.664543 -0.245493 -0.0135852
115 1 5.91446 8.4801 6.98817 0.0897632 -1.18912 1.57118
116 1 2.29955 7.86594 3.09246 0.220559 -1.44588 0.655345
117 1 7.28204 8.15681 9.40554 0.278044 -0.0818082 0.795748
118 1 0.422054 0.29813 8.18334 0.463883 0.802468 -1.00147
119 1 7.57775 0.147398 2.91132 0.882693 0.203873 -0.42601
120 1 7.52399 6.71523 0.175593 -0.313656 -0.805614 -0.391484
121 1 5.87112 5.75442 8.62316 -1.65844 0.0816091 -0.439687
122 1 0.0932109 8.80302 0.942774 -0.324096 -0.768755 -0.94659
123 1 1.37683 2.47311 6.8871 -1.29166 -0.179539 0.00962302
124 1 3.49075 6.6432 3.38574 -0.360391 0.699479 -0.380715
125 1 0.667843 2.18002 4.23557 -0.51796 -1.07272 -0.909186
126 1 0.333803 6.94437 6.87887 0.250156 -1.56734 -0.742067
127 1 1.77991 0.132739 4.59451 0.67367 -0.35603 -0.238532
128 1 4.77288 2.86582 5.32392 1.11301 -0.723878 1.21055
129 1 4.6459 4.89924 1.1571 -0.836596 0.689157 -1.0879
130 1 8.23333 0.747907 5.75246 0.190076 -0.499254 0.962488
131 1 9.0231 0.779549 5.00582 0.778909 0.300321 0.138181
132 1 6.56291 3.65441 4.09663 -1.89374 2.27412 1.62306
133 1 3.77787 4.06341 4.37339 0.766608 -0.327784 0.221802
134 1 6.16587 2.35825 0.544054 -0.24577 1.25773 -0.673654
135 1 8.34849 1.82695 5.18165 1.08748 -0.654695 -0.522757
136 1 3.9025 5.92013 4.26322 -0.890598 -0.950557 -0.664956
137 1 2.77398 2.60123 7.74376 0.616932 -0.864893 0.997282
138 1 1.57271 6.97174 5.5845 -0.0154896 0.588349 -0.875704
139 1 0.714089 0.259813 4.958 0.565803 0.754425 0.131431
140 1 1.18375 3.78905 3.35039 -0.024338 0.2785 -0.752427
141 1 2.3928 3.08821 6.40781 0.636794 0.50476 0.795786
142 1 3.49724 3.60327 6.24733 -0.248952 -0.398661 0.189552
143 1 3.13702 6.14773 8.63679 0.0232148 1.32717 0.960051
144 1 8.94819 8.44887 1.78044 1.25797 -0.442301 0.427067
145 1 0.424041 6.38985 7.81255 -1.03372 -0.374547 -0.067867
146 1 5.74957 8.94642 1.07205 0.578815 0.526893 0.266828
147 1 1.32181 7.28457 6.55108 0.699813 -0.334802 0.658582
148 1 9.07938 4.55074 8.43988 0.242663 0.573135 0.665196
149 1 1.94774 6.74391 2.84661 0.478469 -0.877068 -0.592682
150 1 0.959697 7.27974 7.67984 0.645679 0.392872 1.01937
151 1 3.89252 8.28366 5.41133 1.10725 -0.0509455 -0.811893
152 1 4.47711 9.05268 2.82237 -0.850806 -0.494086 -0.40145
153 1 8.83008 2.93553 2.97125 -0.0882073 -2.43543 -0.712701
154 1 5.94409 6.66055 7.1842 -0.644134 0.474855 1.46516
155 1 5.16697 1.14032 5.673 -0.337618 -0.373912 0.213599
156 1 3.75517 0.441702 2.86611 -0.193007 0.0996089 -0.667873
157 1 8.53852 9.2766 8.08876 -0.872582 -0.674003 1.18068
158 1 0.606631 8.5437 5.0492 -0.0948976 0.635987 -0.411411
159 1 6.2601 7.81628 4.08927 -0.0116414 0.166427 -0.0226988
160 1 8.97082 1.21076 0.799327 -0.578729 -0.0514423 1.27343
161 1 2.27007 5.10671 0.796774 0.323589 0.153773 0.41073
162 1 7.26633 4.5754 8.41957 0.819552 0.0258411 -0.587491
163 1 6.61134 5.27169 8.0689 -0.375259 -0.213765 0.248842
164 1 1.82358 5.67613 2.813 -0.307608 0.619177 -0.340373
165 1 3.49284 1.45242 8.66854 0.410492 0.329987 0.181768
166 1 8.21622 5.18008 3.97918 0.858653 -0.12339 -0.749014
167 1 0.454321 8.93845 0.0547797 0.0316762 -0.571422 1.1292
168 1 7.03991 5.00216 0.56736 0.612967 -0.185695 -0.261734
169 1 0.128382 5.40876 8.04513 1.56261 -0.2233 0.719385
170 1 2.35585 7.14842 3.97047 1.98645 -0.993782 -0.251337
171 1 1.1016 5.18856 2.28271 0.375558 1.09987 0.476915
172 1 6.47388 6.56029 9.12579 -0.692338 -0.237078 0.919531
173 1 6.1882 8.86183 2.00763 -0.400722 0.128899 0.973515
174 1 1.96113 3.29511 7.48352 -0.207303 0.34939 0.357468
175 1 4.13294 -0.00223548 0.155168 -0.150395 -0.644067 0.104171
176 1 3.32584 7.60832 3.77775 0.270329 0.971351 0.204763
177 1 0.899495 0.421924 9.16633 0.41467 -1.45418 -1.84661
178 1 4.21648 6.2742 6.09432 0.312635 -0.00109296 -0.300624
179 1 7.08874 4.1704 0.101344 -0.387271 -0.113217 -0.493771
180 1 4.41114 7.24178 6.79807 0.0159289 -1.63271 -0.56732
181 1 7.9652 5.64291 0.434069 -0.309841 0.528188 0.704717
182 1 5.69057 7.95171 2.01888 -0.223887 0.409835 -0.946074
183 1 4.80473 6.88164 8.74542 0.303016 -0.235363 1.70959
184 1 7.94876 6.65145 6.73215 -0.734519 -0.762709 0.0246342
185 1 7.99405 2.02333 4.17054 -0.144354 -1.24393 -1.12575
186 1 7.66214 7.48804 4.92556 0.251494 0.536543 1.27439
187 1 8.10613 4.38449 1.62604 -0.487995 0.123535 0.647663
188 1 9.17767 6.65923 8.5238 0.597095 0.251735 0.114129
189 1 7.9726 3.62084 4.84082 -1.50134 -1.08398 -0.906158
190 1 8.93615 3.93094 3.27738 0.68212 1.28091 -0.281313
191 1 6.95694 2.6375 8.28722 0.687316 0.717615 0.916231
192 1 8.14412 5.33282 6.87804 -0.892239 -0.438457 -0.480683
193 1 4.12364 7.06257 5.39013 1.01363 -0.888054 0.635542
194 1 5.27608 1.03835 7.61017 0.307992 0.396961 0.503089
195 1 0.453019 8.19414 8.03304 0.301534 -0.933509 -0.697912
196 1 5.67822 6.96707 1.60227 0.826144 0.445808 -1.68172
197 1 3.87821 3.38192 5.26146 1.04158 -0.120689 -1.10209
198 1 1.07805 4.59727 6.34075 0.00872435 0.953102 0.0573935
199 1 8.19379 5.86377 5.93001 0.293668 0.929245 -1.03617
200 1 4.90263 7.86871 5.26581 1.1074 0.471495 0.518519
201 1 0.309375 3.27015 0.65086 0.678785 -0.430551 -0.189032
202 1 9.18319 3.70613 4.3388 0.0934682 -0.141597 1.40068
203 1 9.21017 5.77258 6.25544 -0.0823167 -0.582466 -1.93565
204 1 6.9997 1.87074 4.68073 0.114723 0.596959 1.33648
205 1 1.25896 9.04551 6.57531 0.118428 -0.69011 -1.66629
206 1 4.65753 9.16676 3.81895 2.20153 -0.0548334 0.23274
207 1 7.38134 4.85642 7.3212 0.468286 1.50309 0.0711672
208 1 1.64859 3.78759 6.16767 -0.0287808 0.140216 0.399923
209 1 6.60727 7.47126 1.39242 0.00644462 0.378826 0.162443
210 1 1.4658 5.26349 8.84969 -0.200496 0.626861 0.575003
211 1 3.83917 2.21629 5.15875 -1.70956 0.955969 0.145615
212 1 3.95312 4.05274 1.84172 -0.481151 -0.415697 -1.06253
213 1 4.11098 2.73972 6.12949 0.00152802 0.273953 0.727992
214 1 0.744043 6.51708 0.344121 -0.299283 0.321131 0.40698
215 1 7.10954 7.22561 8.73343 -0.38335 -0.100547 -0.218693
216 1 3.70101 2.4794 8.87255 0.910623 0.671104 -0.601796
217 1 5.56814 1.13091 1.89087 -0.556297 0.897378 -0.166204
218 1 0.163059 2.90302 8.39873 -0.0378799 -0.903798 0.676464
219 1 4.76266 2.39996 0.793634 1.17074 0.114413 0.350744
220 1 8.67674 3.52803 8.41039 0.0308304 -0.441274 0.957485
221 1 6.49883 2.62638 3.60552 0.000621078 0.541954 -0.824166
222 1 5.22397 5.19426 6.81683 0.696307 -0.279146 -1.07879
223 1 8.53497 5.29635 2.06909 -0.962199 0.90637 0.783864
224 1 5.66902 7.84857 0.891493 -0.450462 -1.09445 -0.0616561
225 1 2.68656 1.90942 3.76895 0.716288 0.690874 -0.299026
226 1 8.21246 7.51671 6.17518 -0.871508 -1.69452 -0.275332
227 1 3.03406 3.93588 2.60552 -0.558965 -0.845179 -0.205233
228 1 8.6953 8.30463 7.8876 -0.462886 -0.551062 0.124433
229 1 3.10844 7.42616 0.421457 0.323146 -0.2648 0.489984
230 1 3.50676 0.690882 6.61408 0.933431 -0.29925 1.12387
231 1 3.63031 7.50225 7.346 -0.0827904 0.252337 1.02395
232 1 1.67949 8.24703 8.02477 -1.14532 -0.778125 0.172012
233 1 7.83761 7.77756 8.26751 0.621893 0.152273 -0.162169
234 1 5.29038 2.572 9.24278 -1.32038 -0.971182 -0.487821
235 1 0.87245 5.23374 4.46287 -0.644968 0.358052 -0.591458
236 1 7.33514 5.65342 6.4024 -0.708802 0.520957 0.111483
237 1 7.60607 3.41573 6.92477 0.343497 -0.27153 0.532644
238 1 4.247 1.746 0.0700176 -0.0922866 0.232503 -0.0210145
239 1 9.03694 3.99964 1.08587 -0.440464 -0.225122 1.15707
240 1 4.68303 8.9316 4.84788 -1.36782 1.12724 0.850258
241 1 5.49217 5.97153 3.17852 -0.934233 1.17145 -0.208767
242 1 7.91344 3.38512 2.81814 -0.335163 0.154802 0.311705
243 1 1.06459 0.788201 2.03351 0.0210559 0.299192 -0.0517945
244 1 7.91824 3.95478 7.79664 0.217899 0.31236 -0.71263
245 1 7.11583 4.98713 2.83884 -1.4279 1.18356 -0.435368
246 1 2.48583 6.87445 9.0672 0.12574 -0.18158 -0.527295
247 1 1.34175 2.01002 1.19536 0.504531 -1.00424 1.0411
248 1 9.32311 8.84123 8.57698 -0.981632 0.142617 0.0271691
249 1 1.4273 7.03269 4.47877 -0.124348 1.00858 -0.691999
250 1 2.16551 8.96457 2.66055 -0.577495 -1.4723 -0.826564
251 1 2.04676 7.3028 7.37189 -0.0424835 -0.0741403 -0.147224
252 1 3.55497 3.38218 3.47804 0.403783 -0.110551 0.0461558
253 1 0.745261 6.32298 6.09388 -0.327692 0.0671688 -0.534687
254 1 5.27916 1.26583 4.03282 -0.862319 1.11489 0.950169
255 1 8.97918 8.24672 0.21077 -1.1201 0.34583 0.779946
256 1 8.9825 7.76186 8.69407 -0.0376463 0.132789 -1.95499
257 1 4.75853 0.53933 4.68738 0.0387876 -0.204339 0.754317
258 1 4.29022 1.46269 2.86116 -0.324562 -0.394671 -1.03632
259 1 2.80818 5.683 1.49548 -0.329682 -0.751678 -0.735274
260 1 5.06122 8.56366 7.79844 -0.176103 0.734327 -0.149597
261 1 5.0048 1.67395 8.79685 0.477744 0.838181 -0.234312
262 1 3.16289 4.41213 3.45138 -0.0574045 -0.128031 -0.0992238
263 1 5.30056 4.02961 5.39379 0.120831 0.278511 0.0418277
264 1 5.93508 2.70036 2.38906 -0.0869803 -0.359629 0.0791413
265 1 7.24908 5.71675 3.69776 -0.174503 -0.6807 0.211446
266 1 8.36006 6.30025 2.36051 0.601883 0.015555 -1.18999
267 1 3.49088 8.3841 0.00656146 -0.257932 0.627777 -0.142592
268 1 5.98952 3.30325 6.75069 -0.408833 0.226585 0.124913
269 1 8.38614 6.10205 1.35515 0.469499 0.107574 -0.0660925
270 1 7.99954 3.33416 5.92249 -0.411791 0.737045 0.89114
271 1 2.84676 0.329359 3.28294 -0.70239 -0.66751 0.659789
272 1 6.39793 4.05343 5.64946 -0.238907 -0.820732 0.456695
273 1 8.66165 6.15825 3.37536 1.16865 0.310589 -0.5881
274 1 6.65456 3.29866 0.528903 -0.622306 -0.949398 0.711716
275 1 2.70997 8.22928 7.81204 0.256028 -0.103248 0.00890565
276 1 5.58472 7.28195 9.38224 -0.442696 0.214423 0.602548
277 1 6.03934 4.54969 4.72785 0.3243 -1.31363 -1.25861
278 1 1.12464 4.95619 1.22577 -0.198216 -0.283751 -0.890691
279 1 9.38073 7.18654 0.117618 0.767457 -0.0617864 -0.21351
280 1 5.74561 0.108114 7.83014 1.42454 -0.551651 0.19584
281 1 6.06329 6.99407 3.53071 1.20015 -1.05431 0.425714
282 1 3.15424 6.64621 4.49989 0.0512254 -0.147878 -0.212088
283 1 8.92463 6.76463 6.1758 -0.340039 -0.352345 -0.156105
284 1 3.80217 0.386706 8.54596 0.540857 0.829852 -0.920776
285 1 4.47331 4.47688 8.65842 0.016009 1.00137 0.245299
286 1 2.50713 0.752133 7.25099 1.22082 0.257081 -0.10063
287 1 8.62899 3.57644 2.11669 -0.205004 -0.30581 0.201287
288 1 3.91622 9.30658 1.91605 -0.630784 -0.0364966 0.594093
289 1 6.30804 4.36239 2.33819 1.52306 0.355208 0.752346
290 1 2.25646 5.05347 3.58149 -0.780963 -0.284719 0.157758
291 1 1.46812 0.655637 7.15676 -0.595574 0.0383535 0.432532
292 1 1.93005 5.17589 4.83465 -0.368229 0.695749 0.658583
293 1 3.32713 7.61501 4.81112 0.757669 -0.587907 -0.540605
294 1 3.84318 6.48409 7.06683 -0.0421503 0.0101346 -1.35298
295 1 3.65924 6.00941 5.25752 -0.739619 -0.0158006 -0.72178
296 1 5.3836 3.36387 4.55496 -0.114067 0.042229 -1.30999
297 1 4.14947 3.44339 8.94394 -0.318571 -0.328181 0.953227
298 1 8.04516 2.44529 0.723703 -0.763756 0.758244 0.0176643
299 1 0.56619 7.93836 1.45932 -0.241474 0.763361 -0.278628
300 1 6.19933 1.54429 1.1155 -0.10322 0.713302 -0.106258
301 1 0.74915 2.09167 8.00574 -0.0370782 -0.108449 -0.288603
302 1 6.65442 8.32007 6.12513 1.72737 -1.37442 0.576695
303 1 4.53606 4.31947 6.94528 -0.330158 0.393878 -0.166623
304 1 6.45668 1.37024 0.0990627 0.580788 -0.368289 0.525406
305 1 1.46916 4.52751 0.287397 -0.769493 0.381541 0.635071
306 1 8.65037 0.284239 6.86085 0.565888 0.142761 -0.0850697
307 1 4.71461 6.56664 1.84769 0.369102 -0.232353 0.404525
308 1 6.232 8.92119 3.68587 -0.638752 -0.54292 0.239821
309 1 3.55553 5.01995 4.9067 -0.190554 0.248405 0.643159
310 1 9.02968 2.31375 3.94967 0.130197 0.385268 0.655113
311 1 5.67492 2.30022 8.2936 0.0256124 0.900224 -0.0430168
312 1 4.07581 7.04566 2.5105 1.18782 1.86343 -0.340761
313 1 9.09873 7.64572 1.10657 -0.278139 -0.188445 0.464769
314 1 5.75536 4.73884 8.19443 0.251471 -0.375341 0.665508
315 1 6.00136 5.80879 6.4263 -0.397591 0.0571185 0.0961904
316 1 1.31901 8.52829 3.20632 -0.115835 0.188002 -1.52729
317 1 3.779 2.71239 0.464371 -0.333982 0.634206 0.141982
318 1 0.227704 2.82444 5.26307 -0.255919 0.907671 0.979984
319 1 7.61744 8.36542 6.58466 -1.242 0.135952 0.977838
320 1 8.19235 2.51267 2.21341 0.304756 -1.81779 0.785118
321 1 4.73757 8.85411 5.93116 0.981592 -1.08555 0.192973
322 1 0.401687 0.556207 7.05079 -0.0356893 -0.326183 0.780161
323 1 3.41702 5.44307 3.35121 0.0670755 -0.286955 -1.22968
324 1 5.44097 1.61218 0.388537 0.314992 -0.530028 -0.76154
325 1 4.93377 1.88645 4.98736 -0.968555 -0.860027 0.793738
326 1 7.76611 0.0385328 7.43756 -1.09031 -0.451707 -0.506494
327 1 0.778298 7.03211 8.8475 0.469777 0.582352 0.134065
328 1 4.64942 5.4754 2.0081 1.96563 0.49959 -0.742206
329 1 2.04161 3.57054 4.42271 0.0999637 0.123888 0.269754
330 1 3.33497 2.74772 4.36123 -0.291378 -0.470099 -1.52285
331 1 4.53966 3.66232 6.05495 0.211515 -0.230572 -0.384832
332 1 1.56336 4.24388 7.19276 0.0904921 -0.857567 0.964677
333 1 6.61612 6.46895 0.837419 0.522038 -0.50998 -0.191493
334 1 3.40598 0.112302 7.65866 -0.0287742 0.068935 0.338222
335 1 3.74282 1.69318 0.983377 0.358112 -0.530041 1.23572
336 1 0.860954 0.468391 6.10105 -0.326088 -0.649129 0.158985
337 1 8.64599 3.52843 0.206929 0.0804405 0.666554 0.242706
338 1 5.89193 1.9065 3.21194 0.530752 -0.426582 0.19395
339 1 8.23428 8.56338 8.8807 -0.208127 -0.0699494 -0.183538
340 1 2.78258 5.04412 2.62342 -0.18539 1.75435 -0.980684
341 1 1.3691 1.23007 0.350336 0.671516 1.20425 1.10572
342 1 3.54369 7.85176 8.31167 -0.205711 1.84374 0.028237
343 1 2.11475 3.26238 2.75305 1.75155 0.97341 0.427914
344 1 3.09293 0.990648 4.60871 -0.107789 -1.23658 0.22516
345 1 7.07456 8.52074 4.27414 -0.493354 -0.00176874 0.603006
346 1 0.60706 5.7763 6.93704 -0.368165 -0.709999 0.383828
347 1 8.87463 4.15085 7.44004 -0.724178 -0.327253 0.191759
348 1 5.21814 3.09083 7.56463 0.67698 0.528141 -0.843648
349 1 3.98232 0.96236 1.81715 -0.696391 0.507888 -0.684302
350 1 4.69859 3.57891 3.73452 0.646333 0.842398 -0.231914
351 1 7.23342 9.09275 1.9888 -0.151219 -0.296534 0.145792
352 1 5.19456 5.12101 9.01947 1.57233 -0.4287 -0.528135
353 1 1.29194 1.02286 4.57976 -1.38594 0.120419 0.385179
354 1 2.65642 0.468969 8.26041 0.217396 1.51874 1.36429
355 1 8.95106 3.6623 6.50747 -1.3022 0.151416 -0.765128
356 1 0.472682 4.35615 0.64686 0.149486 0.645004 1.3066
357 1 5.63546 3.11819 1.12014 -2.17264 -0.861322 -0.788101
358 1 1.14525 8.88272 8.61948 0.070813 0.1223 -0.650635
359 1 3.28084 3.55279 1.31146 -1.63987 -0.222807 -0.333917
360 1 5.91742 3.09339 5.55717 -1.75234 0.0435397 0.0392615
361 1 3.51647 1.74525 2.30641 0.466064 0.105286 0.312011
362 1 6.5345 3.25293 1.71286 0.558116 0.0553869 -0.0405282
363 1 8.33097 7.22459 1.8737 -1.20736 -0.588476 0.196004
364 1 4.38432 1.09267 8.11356 0.510981 -0.303502 0.665975
365 1 1.22488 8.92166 1.83874 -0.626958 -0.0340064 0.287209
366 1 6.80305 8.00002 5.15928 -0.158187 1.04161 0.099067
367 1 7.81114 0.939205 4.72724 0.297508 -0.138553 0.109548
368 1 2.41008 7.30687 1.45051 0.724559 0.135592 -0.259457
369 1 7.69629 2.57751 5.2684 -0.281286 1.00028 0.861443
370 1 4.79173 1.30906 1.2215 0.626928 0.0113506 -0.00338452
371 1 8.0918 0.998294 2.61678 0.0193841 0.711243 0.605789
372 1 5.14184 9.31396 0.300301 0.393918 -0.551485 -1.84763
373 1 7.81542 0.842428 6.75324 0.717334 0.703042 -0.406536
374 1 6.98191 6.78367 3.96588 -0.662776 0.337619 -0.723536
375 1 5.13896 5.78237 5.87326 -0.768213 -0.0151297 0.695841
376 1 2.52048 1.67432 7.93445 -0.105446 -1.36714 -0.307627
377 1 2.83762 5.20823 8.15128 -0.0256392 0.0624044 -0.0304046
378 1 8.30175 0.0574517 2.11181 -0.174447 -1.57927 -1.33876
379 1 9.01823 3.56162 5.43676 0.967201 -1.45703 0.0199565
380 1 8.7431 7.12681 2.93506 -0.794708 -0.212531 1.42981
381 1 1.66594 5.43464 6.96976 0.931413 -1.29269 1.63768
382 1 6.58085 2.11058 1.94317 0.814263 -0.256735 0.497706
383 1 7.06278 2.57742 1.09514 -0.216404 -0.575214 -0.869811
384 1 7.20122 8.37225 1.10898 0.112121 -0.0199162 -0.0136877
385 1 5.11876 8.87115 1.98109 -0.67353 -0.0600674 0.373328
386 1 0.339812 2.22897 1.03533 0.241767 -0.289064 -0.396388
387 1 7.39688 1.77541 2.52668 0.070904 -0.634971 0.788051
388 1 4.85201 5.86689 8.26763 -0.207945 0.495162 -0.588796
389 1 7.37377 4.13418 5.93597 0.204308 -0.646002 0.170632
390 1 8.48185 4.50223 4.75639 -1.11291 -0.250901 1.29886
391 1 4.68064 0.875773 0.294485 0.506898 -2.06197 0.273756
392 1 2.30667 0.861905 3.96582 -0.345345 -0.924963 0.758698
393 1 4.51511 0.0127485 7.69331 -0.176218 0.538844 -1.1371
394 1 9.40895 4.63787 6.1602 0.651556 -0.890759 0.394747
395 1 8.10049 5.2883 8.84078 1.17783 -0.536144 -0.727497
396 1 2.83278 1.76386 5.22677 -0.130449 0.0141077 0.221302
397 1 6.96092 3.31397 5.11643 0.938022 0.893766 0.174397
398 1 7.51797 6.96087 1.17496 1.70389 0.586294 0.0264612
399 1 1.97068 1.59106 2.14557 0.483425 -0.00107435 -0.159722
400 1 6.88059 8.1054 2.15896 -1.04344 0.273447 -0.964027
401 1 3.49413 1.75588 6.06795 0.455001 0.198718 0.481509
402 1 7.31139 0.293669 5.32512 -0.0457036 -0.199803 -0.266665
403 1 0.786286 3.00319 1.48574 -0.166993 0.833218 -0.267475
404 1 5.26754 7.0746 2.58692 0.763717 1.04525 0.952765
405 1 4.03181 1.5781 6.94268 0.437367 0.0969209 2.16214
406 1 2.19358 4.11973 5.28789 -0.0456417 -0.52553 0.171242
407 1 5.34114 8.27414 0.031525 -0.19935 0.151146 -0.313133
408 1 4.64671 2.69349 8.36834 0.0748758 1.85484 -0.315753
409 1 2.80183 1.29416 2.86969 0.177384 -0.178302 -0.21855
410 1 0.414587 4.0382 7.00046 -0.255223 -0.217157 0.500708
411 1 6.51333 9.01882 5.25353 0.00496561 1.34845 -0.601539
412 1 5.54278 0.391404 3.69888 1.24036 0.238115 -1.1107
413 1 2.11401 7.61061 0.569914 1.09899 -0.110606 -0.585499
414 1 1.33641 7.41528 3.50517 0.84616 0.186838 0.215592
415 1 1.5039 3.80248 1.07632 -0.241496 1.03062 0.517869
416 1 9.30707 8.69246 3.53428 -0.593457 1.10869 0.108829
417 1 1.39406 7.958 4.98112 0.555624 0.422862 0.477822
418 1 3.34852 0.417908 1.07895 0.20976 -0.177088 0.0776096
419 1 7.59665 2.52474 3.39302 -0.393765 0.24518 -0.605054
420 1 9.30437 1.85349 4.8531 -0.0783669 1.47492 -0.244687
421 1 7.93145 8.25213 1.91142 -0.0730781 1.01594 -0.337471
422 1 3.0813 2.69571 5.68975 0.0588503 -1.08125 0.714065
423 1 8.11222 7.55373 9.32541 0.630699 -1.46072 0.364621
424 1 7.67797 8.48419 5.52345 0.983538 0.470168 0.244261
425 1 1.64604 1.93645 5.11743 0.653052 1.14896 0.3072
426 1 8.94948 0.786582 8.64216 0.339342 0.391373 0.955362
427 1 6.51158 5.88962 5.40834 0.708907 -0.210041 1.00748
428 1 3.32984 2.7578 6.85835 0.0581188 -0.774927 0.292441
429 1 4.75028 3.31736 0.401012 -1.26756 -0.12718 -0.285416
430 1 2.35242 8.83154 6.14349 0.890172 0.646412 1.05896
431 1 9.22513 7.4401 7.68102 -0.400838 -0.0900577 -0.752837
432 1 6.20383 0.790208 6.93641 -0.43913 0.725498 -0.862772
433 1 3.7021 2.07682 7.83866 0.532061 0.796119 0.19929
434 1 4.82615 4.39649 2.33487 0.219577 -0.569199 -2.24649
435 1 1.87556 0.715169 2.76012 -0.376778 0.470708 0.407168
436 1 2.0772 3.45375 9.04456 1.39275 -0.355647 0.282586
437 1 8.29081 4.95993 7.83406 0.282903 0.480395 -0.476585
438 1 1.58155 9.15452 0.147796 0.38639 -0.452621 -0.223172
439 1 5.26564 6.33065 4.20177 -0.535943 0.642619 -0.276831
440 1 0.687354 4.42162 2.71581 -0.319851 -1.07054 -1.69627
441 1 8.97664 0.765966 2.20044 0.236014 -0.165248 1.04993
442 1 4.955 6.98193 0.774441 0.047672 1.6051 0.109837
443 1 3.8585 6.80011 8.09514 0.253324 0.685222 -0.199885
444 1 7.88363 6.57356 4.33177 -0.106481 -0.46479 0.879098
445 1 5.03021 0.531025 8.66211 -1.50996 0.229445 0.748878
446 1 7.3256 5.80914 2.25777 -0.904443 -0.516641 0.830651
447 1 1.09629 7.49025 0.500207 -1.06982 -0.741326 -0.735513
448 1 4.55868 7.70386 7.89616 -0.728149 -0.00446301 -0.0127222
449 1 2.37274 1.45418 8.88882 -0.170304 -1.42372 -0.165592
450 1 2.05813 9.18598 7.51767 1.00931 0.648652 -1.04007
451 1 6.81307 0.65049 8.81805 0.596342 0.606494 1.27312
452 1 5.70248 6.70323 8.26676 -0.699637 -0.37304 0.0141076
453 1 5.51553 7.88084 8.44196 1.13293 -0.491475 -0.579549
454 1 5.69195 6.56628 5.15236 -1.10773 -0.330884 0.357066
455 1 4.26252 5.3791 6.87923 0.0975855 -1.10467 0.495251
456 1 1.08366 6.28899 2.28934 -0.925551 0.367229 -0.538046
457 1 4.89986 4.32002 0.220399 1.48939 -1.5795 0.076287
458 1 8.64757 7.43741 4.48584 -0.696158 -0.270445 1.98831
459 1 2.89201 7.18025 2.39463 -0.142384 0.455927 0.411882
460 1 8.36565 2.67524 9.00277 -0.478921 1.03915 -0.22753
461 1 8.97726 4.94769 3.30296 1.67125 0.591638 -1.31152
462 1 1.02302 6.43395 3.34644 -0.826406 -0.139108 -0.31897
463 1 2.19508 0.567814 9.2259 0.146499 0.439824 1.02204
464 1 9.11277 6.19178 0.714259 0.365082 -0.430483 1.13712
465 1 1.72322 7.97613 2.10838 -0.116794 0.242073 0.997105
466 1 8.14231 7.82072 1.09239 -0.440744 0.535896 -1.00973
467 1 5.31639 1.18049 2.88737 -0.673328 0.994434 1.05746
468 1 6.80119 8.87887 2.86606 -0.11576 1.35562 -0.542857
469 1 2.4051 2.00385 1.24837 0.159448 0.820613 0.141404
470 1 7.0122 5.40589 4.68507 -0.118128 0.29793 0.685536
471 1 2.42183 8.58408 0.285106 0.656793 0.746924 -0.454501
472 1 2.34609 6.9775 6.3324 -0.702651 -0.914744 -0.102535
473 1 8.81466 1.31347 6.91876 -1.30041 -0.656984 0.023199
474 1 6.74164 1.73848 8.60207 0.233118 0.689959 -0.259467
475 1 4.51579 8.88204 8.77981 0.63421 0.310282 -0.106102
476 1 2.91733 5.66065 4.33634 0.984501 -0.321741 0.632526
477 1 8.36957 6.89451 7.79719 -0.766625 -0.388589 -0.381864
478 1 5.70157 0.0179826 4.59673 0.238343 -0.317314 -1.37725
479 1 7.26784 0.742155 1.96845 0.631207 -1.27875 -0.473193
480 1 6.03927 6.78098 6.10501 1.00271 -0.145212 -0.650187
481 1 2.74333 4.58793 4.38971 0.652383 -0.194431 -0.445259
482 1 4.71968 6.26897 5.06838 -1.02234 -1.19672 1.1019
483 1 1.1337 5.09043 3.36585 -0.749709 1.20684 0.190924
484 1 0.0941402 3.76865 8.95854 0.828949 0.288146 -0.21654
485 1 6.72652 5.77146 7.1913 -0.0517292 0.502729 -0.167124
486 1 1.81192 4.53243 2.70908 0.525252 -0.589648 -0.0278449
487 1 0.667113 6.26665 4.47009 -0.123033 0.315201 -0.597776
488 1 6.64114 2.30146 5.56805 -2.07564 -0.322013 -0.188834
489 1 6.41361 8.42814 0.535165 -0.755152 0.74662 0.61934
490 1 5.51873 6.00495 2.15751 -0.142383 0.0285822 0.988343
491 1 4.75442 5.28956 2.97266 -0.257534 -0.597129 -0.253329
492 1 1.52378 8.98822 5.53529 -0.661091 0.982529 0.81641
493 1 8.05212 4.55351 0.566136 1.12352 0.432442 1.18279
494 1 4.17097 4.17006 3.11173 -0.0539941 -0.625061 -0.509363
495 1 3.1343 8.11209 1.17881 -0.213549 -0.369205 0.446738
496 1 2.55949 0.0884761 5.34347 0.761709 1.04959 0.142543
497 1 6.4582 7.55036 6.77267 -0.746397 0.616657 0.125386
498 1 2.63244 1.14528 0.539487 0.175958 0.904304 -0.568703
499 1 3.62574 3.13111 2.29627 0.751138 -0.224418 1.34147
500 1 6.62421 6.32898 8.06263 0.425098 0.897606 -0.552277
501 1 5.81681 4.23441 3.73806 -0.63191 -0.0729762 0.964622
502 1 8.0813 4.1668 3.75299 -0.385596 0.334678 0.116632
503 1 3.38359 1.15378 7.68662 0.646439 -0.185282 0.569696
504 1 2.95199 0.439183 2.23431 0.619855 0.498215 0.612714
505 1 7.67403 3.34423 0.522993 -0.077051 0.3208 -0.146779
506 1 5.74267 5.69266 7.58312 0.744125 0.365753 -1.40657
507 1 5.46331 7.53991 7.42579 -0.610566 0.00882276 -0.613881
508 1 0.825013 8.0954 4.09183 -0.242339 0.836088 0.372232
509 1 3.37453 2.54693 1.5019 -1.44425 -0.824031 -0.107428
510 1 5.69189 4.93083 0.718433 0.749566 0.175645 -1.22082
511 1 6.22119 1.69369 7.65306 -0.561032 0.554371 0.253817
512 1 2.07927 6.34787 1.8917 0.0038826 -0.303763 0.750741
513 1 4.67962 7.5607 1.64494 0.221123 0.274575 0.375029
514 1 8.017 5.4745 2.90308 -0.310366 -0.41547 -0.208929