ITEM: TIMESTEP
380
ITEM: NUMBER OF ATOMS
1000
ITEM: BOX BOUNDS pp pp pp
0.0000000000000000e+00 9.4000000000000004e+00
0.0000000000000000e+00 9.4000000000000004e+00
0.0000000000000000e+00 9.4000000000000004e+00
ITEM: ATOMS id type x y z vx vy vz
1 1 4.66457 0.252304 1.25995 0.227845 -0.937437 -0.530523
2 1 7.95658 2.88644 7.92834 1.19653 -1.048 -0.383565
3 1 0.161166 3.15612 3.70597 0.124913 -0.485978 0.519846
4 1 0.743985 7.95488 6.77932 0.51 -0.160341 0.852878
5 1 5.48727 2.20779 5.87811 0.101693 0.469333 0.982472
6 1 7.02363 7.26246 5.87374 0.944163 -0.624762 0.514127
7 1 1.10435 8.40405 0.889818 0.279135 0.12688 0.0752682
8 1 2.25125 2.2498 6.27512 0.260943 -0.248719 -1.02452
9 1 1.40747 2.71487 4.84053 0.216167 0.479396 0.378308
10 1 2.97189 9.16093 1.66712 0.556887 -0.0681104 0.432565
11 1 8.50234 6.95988 0.703702 0.0884464 -0.306557 0.0820969
12 1 7.08715 2.94563 2.73284 -0.79798 -0.680052 0.135291
13 1 8.20748 1.8272 6.2244 -0.0877047 0.328775 0.211369
14 1 3.53778 6.43021 1.44676 -0.292572 -0.224767 -0.367292
15 1 7.76204 3.07149 1.55858 -0.791641 -0.48625 0.201759
16 1 1.25449 3.06594 8.51331 -0.0926924 -0.194881 0.519389
17 1 8.29825 4.42153 6.77186 1.74939 0.0327762 -0.262608
18 1 0.282838 3.43171 2.6268 0.464088 0.0193539 -0.743058
19 1 6.25232 3.00342 9.13032 -0.809083 1.03788 0.187278
20 1 4.16465 3.49515 7.08468 0.284634 0.150537 -0.0961843
21 1 1.72155 5.06436 5.71576 0.939545 0.283128 0.643622
22 1 2.88447 3.47039 4.77431 -1.05855 -0.523718 -0.202671
23 1 5.21604 3.66158 8.7401 1.21346 0.565297 -0.137004
24 1 2.36025 3.9334 8.01428 -1.2684 -0.8372 -0.337493
25 1 6.30906 2.74418 7.51783 -0.225922 0.183466 0.145674
26 1 2.1672 3.13961 5.4203 1.6412 0.311823 -0.119293
27 1 8.39056 0.857285 7.69623 1.08345 0.449442 0.544576
28 1 4.41474 6.31508 3.21238 0.169279 0.0222574 1.73474
29 1 3.09362 0.154001 9.28912 -0.0176778 -1.26192 -0.396779
30 1 7.47293 2.8171 4.44954 -0.51089 0.788863 0.784701
31 1 8.71633 3.00787 1.20258 0.654179 1.64413 -0.0897842
32 1 4.35418 0.365455 5.81192 0.0813894 0.962843 0.152062
33 1 1.85025 7.27634 8.40874 0.220756 -0.207954 -0.432382
34 1 3.59651 7.48654 1.4539 -0.740056 1.14315 0.512479
35 1 9.22218 0.55763 6.08665 1.36462 -0.782524 -0.008637
36 1 6.45839 6.34914 1.94818 0.79766 0.693211 -0.436128
37 1 8.52406 1.55515 9.29275 -0.252842 0.0998231 -0.0728448
38 1 1.30482 1.65908 3.04263 0.540551 1.54791 -1.44998
39 1 0.392597 0.928322 4.33547 0.666644 -0.365983 -0.810083
40 1 2.22685 4.17925 0.469124 -0.176722 -0.767497 -0.366606
41 1 6.04634 9.35093 6.18922 -0.107143 -1.41536 0.115281
42 1 1.17042 2.00031 8.7167 0.0881829 0.220729 -0.374519
43 1 1.88345 3.01917 1.67981 -0.650544 -0.098323 0.0249103
44 1 7.26789 1.25557 5.6579 1.56511 -0.551954 -0.369427
45 1 6.32298 2.38621 6.58192 0.635703 -0.537513 -1.00228
46 1 7.80563 6.41677 3.07346 -0.0416813 -0.94376 -1.47725
47 1 6.06979 5.67388 0.315767 -0.296117 -0.0933416 0.155235
48 1 7.77788 7.43812 3.7195 1.6502 -0.0813589 0.358542
49 1 3.41488 4.66333 6.70655 -1.02672 0.0673574 -0.725386
50 1 8.62028 8.07566 3.70013 0.295192 0.133937 0.260629
51 1 6.26677 7.28719 2.52371 -0.124236 0.43325 0.340779
52 1 1.12101 3.6579 0.156643 -0.407733 0.404319 0.0558323
53 1 5.32695 2.99124 3.24516 -0.0773745 1.01296 0.861351
54 1 9.25083 6.11165 5.43479 -1.48985 0.923042 -0.136174
55 1 8.80165 5.18214 5.36889 -1.23905 0.664912 0.550102
56 1 0.00901242 4.46152 5.08538 -1.06166 -0.0271708 -0.692667
57 1 0.144939 8.73132 6.41443 -0.355248 -0.478349 -0.414112
58 1 5.11968 4.02944 1.11456 -0.267996 -0.00450689 0.581169
59 1 0.50273 7.49632 4.69102 1.36392 0.606126 0.207274
60 1 0.378185 5.41333 0.514812 -0.0716968 -0.160617 0.450973
61 1 5.59584 9.09783 8.69013 -0.697622 0.576316 0.543497
62 1 0.454016 0.371378 1.50782 -0.488165 0.457882 -0.144546
63 1 7.43231 7.00494 7.62603 -0.364775 0.938748 0.788983
64 1 3.38248 5.18555 8.97771 0.392668 -0.694446 0.739823
65 1 2.16862 2.47161 8.80416 -0.0713619 0.535591 -0.811617
66 1 6.40997 4.85876 9.04585 0.166386 0.411071 0.0697488
67 1 6.39427 5.33366 2.30141 -0.489048 -0.59894 0.22445
68 1 4.06123 5.05983 0.251957 -0.00452981 0.0488583 0.570359
69 1 2.46329 2.87119 0.524131 -1.05423 -0.433 -0.0848436
70 1 0.273907 1.45586 3.43334 0.718035 -0.887985 0.821261
71 1 7.25208 5.98154 1.3665 -0.585817 0.18399 -1.10542
72 1 7.10934 4.91989 1.6365 -1.2812 -1.29579 -0.494529
73 1 2.02479 8.66895 1.25283 0.740206 -0.124687 0.333049
74 1 4.73112 5.11735 7.70263 0.0884808 -0.272647 1.52421
75 1 8.30603 9.31663 5.07778 0.320151 0.96993 -0.919176
76 1 6.75895 7.73755 3.27713 0.0621332 -0.664595 -1.51978
77 1 4.80736 4.07817 7.81456 -0.550648 -0.140178 0.423702
78 1 2.334 4.85154 9.10343 -0.944576 0.561944 0.0421368
79 1 7.84329 7.82033 2.69827 -0.304277 0.380424 -1.76509
80 1 0.112069 6.53843 2.96412 -0.153871 0.00537672 0.163707
81 1 5.93433 0.241692 2.7915 1.38637 -0.365571 0.650291
82 1 9.24658 3.01018 7.41734 -0.401092 0.600507 -1.53605
83 1 3.51641 8.60742 4.42249 -0.541337 -0.181451 -0.288563
84 1 0.856628 4.80619 7.36685 1.19673 -1.41437 0.312251
85 1 2.25904 2.14182 3.13622 -0.235114 0.281499 -0.0302605
86 1 3.25413 4.24742 8.40069 -0.783319 0.472956 0.501636
87 1 9.09863 4.47677 2.20133 -0.453315 -0.098773 -0.414064
88 1 0.652137 1.80391 2.18503 0.890431 -0.329154 -0.455018
89 1 4.25998 2.17343 1.76916 -0.292974 -0.56595 0.633776
90 1 7.22003 6.95655 2.32505 -0.235887 0.355313 -0.698367
91 1 4.38672 2.59589 3.38672 0.907702 -0.68507 -0.140752
92 1 0.62435 1.12908 8.63266 -0.943965 -0.175631 -0.116755
93 1 3.79947 6.10473 2.38608 -0.495301 0.402877 -0.65759
94 1 5.01719 8.58247 0.917361 -0.987003 -0.332938 -0.986695
95 1 6.18996 6.06716 4.0472 -0.544838 1.05799 -0.405493
96 1 4.03481 8.75623 7.55141 -0.739797 -0.447737 0.494503
97 1 5.48729 4.66693 2.84146 -1.38772 0.378841 -0.305811
98 1 8.48254 8.71117 2.78664 -0.676667 1.45149 -0.326674
99 1 1.12525 0.0586684 2.84249 0.218123 -0.555276 0.123896
100 1 6.71288 0.0599608 7.83768 1.1467 -0.200866 -0.195333
101 1 8.70194 5.28694 0.798903 -0.593349 0.0743576 0.970066
102 1 7.65073 6.47421 8.57935 -0.0223144 0.590828 0.812386
103 1 4.78149 0.607609 2.29483 0.191106 0.127151 0.728101
104 1 8.84244 0.0149632 1.26987 0.420865 0.515525 -0.713316
105 1 7.45088 8.72225 8.18195 0.534145 0.364011 -0.499714
106 1 3.90266 3.09225 8.03001 -0.451413 -0.17237 0.203242
107 1 1.41146 7.1851 1.68385 0.576579 0.168425 0.436257
108 1 9.10783 5.34493 9.07842 0.0872163 -0.202094 0.465761
109 1 5.4662 1.7676 6.83692 -0.909143 -0.628881 -0.303429
110 1 2.6673 7.90009 6.78763 -0.174908 -0.164823 -0.292807
111 1 2.48141 0.186647 0.827742 -0.318948 -0.99978 0.664541
112 1 1.40747 5.98345 5.18377 -0.943118 -0.185406 -0.835141
113 1 9.3325 9.00453 7.48956 0.0137922 1.17072 -0.423403
114 1 2.08427 6.40799 4.53601 -0.10317 1.02329 -0.293534
115 1 6.00924 8.5709 6.94235 -0.0903036 -1.20703 0.150757
116 1 2.30457 7.85218 2.94766 -0.563247 -0.617742 -0.906711
117 1 7.31345 8.22431 9.28242 0.57213 1.29096 0.196455
118 1 0.384308 0.172306 8.1725 -0.0956513 -0.0427721 0.413494
119 1 7.63042 0.0290452 3.07141 0.665694 -0.37899 -0.292047
120 1 7.4683 6.63531 0.298096 -1.32504 -0.107111 -0.677999
121 1 5.95667 5.77564 8.67338 -0.0877084 -0.00511406 -0.385441
122 1 0.119564 8.73027 1.00362 -0.535727 0.30202 -0.553636
123 1 1.34995 2.39085 6.84112 0.233195 -0.148497 -0.325098
124 1 3.5163 6.70183 3.2749 0.169216 0.936374 0.772353
125 1 0.583681 2.31501 4.20828 -0.803659 1.24226 -1.27512
126 1 0.373798 6.87019 6.95354 0.30274 -0.081835 0.702066
127 1 1.77318 0.202792 4.54928 -0.459265 -0.212964 -0.724185
128 1 4.86829 2.89673 5.4582 0.189639 0.0229939 1.15106
129 1 4.79623 4.98881 1.03903 -1.42374 1.04258 0.265556
130 1 8.23192 0.695356 5.8394 0.051513 0.238957 0.156945
131 1 9.10461 0.604157 5.02328 1.04392 -0.222312 0.881251
132 1 6.78219 3.5613 4.18778 -0.284483 0.593147 0.769292
133 1 3.8051 3.93207 4.33061 1.72262 0.122234 -0.504324
134 1 6.17586 2.36756 0.589345 0.253766 0.321605 -0.673514
135 1 8.37565 1.5347 5.19872 -0.852661 0.883524 0.769649
136 1 3.8876 6.00444 4.10604 -1.56995 -0.132129 -0.34538
137 1 2.79137 2.73424 7.69189 1.13022 0.722275 0.511171
138 1 1.43548 7.02445 5.49752 -0.889761 -0.677576 -0.514498
139 1 0.785206 0.13281 4.9625 0.231345 0.773508 -0.088107
140 1 1.12082 3.79159 3.38259 0.758194 0.464875 0.158922
141 1 2.49104 3.26647 6.46476 -0.505015 -0.366321 0.112314
142 1 3.46379 3.69011 6.28068 0.0796441 0.314955 -1.01206
143 1 3.16877 6.18805 8.67215 0.932216 0.162347 0.770373
144 1 9.08379 8.35966 2.02441 0.420425 -0.517271 0.376123
145 1 0.395558 6.57031 7.91266 -0.473702 0.0227643 -0.458057
146 1 5.86132 9.06312 1.10142 -0.0374145 -0.371406 -0.567757
147 1 1.34982 7.22208 6.47288 -0.755524 1.181 -0.583034
148 1 9.03989 4.38598 8.50898 -0.199461 -0.604647 0.573935
149 1 1.9623 6.83859 2.72624 -0.145565 -0.099231 -0.829927
150 1 1.04817 7.33018 7.60913 0.109353 -0.60907 0.442442
151 1 3.89231 8.28859 5.44681 0.38145 -0.0237886 -1.09487
152 1 4.45335 9.09032 2.64756 0.0663481 -0.199037 -0.35016
153 1 8.82006 2.61167 3.02053 0.184538 0.560811 0.967073
154 1 5.98491 6.66316 7.13932 0.529364 0.537733 -0.439198
155 1 5.15856 1.15238 5.55492 1.25127 0.0451195 0.0683246
156 1 3.78765 0.608236 2.84301 0.635639 0.613823 0.654328
157 1 8.53578 9.37565 8.25648 0.0362005 0.292893 -0.330363
158 1 0.538824 8.57931 4.78267 0.346789 0.181142 -0.357079
159 1 6.23102 7.71417 4.14067 -0.508451 -0.918136 0.401471
160 1 9.036 1.10985 0.964232 0.323183 -0.559663 1.2803
161 1 2.11676 5.20227 0.791513 -0.437475 -1.11745 -0.811238
162 1 7.3191 4.62994 8.46413 0.821962 0.218295 0.580125
163 1 6.64322 5.23474 8.0396 0.972367 0.736206 0.678809
164 1 1.86253 5.66362 2.88937 0.373837 -0.974829 0.465289
165 1 3.37598 1.64295 8.71311 0.325334 0.90847 -0.954464
166 1 8.22969 5.01717 3.77809 -0.568363 -0.331565 0.40662
167 1 0.591199 8.71939 0.0596622 0.366413 -0.305233 0.0813185
168 1 6.92262 4.97351 0.552461 -0.515674 -0.339835 -0.108652
169 1 0.212929 5.17829 8.09188 -1.17368 -0.513988 -0.17029
170 1 2.42387 7.34419 3.87035 -0.195422 -0.397094 0.762735
171 1 1.09343 5.36946 2.18781 0.080354 1.31803 -0.275237
172 1 6.49205 6.55383 9.22799 0.462862 0.131576 0.406666
173 1 6.10331 8.80115 2.12648 0.141335 -0.0203575 -0.49885
174 1 1.88817 3.22632 7.35356 1.20756 0.340944 1.37472
175 1 4.08 0.0901324 0.194653 0.709124 -1.21892 -0.14032
176 1 3.52308 7.62258 3.83258 -0.29712 -0.280459 0.459268
177 1 0.967482 0.279667 9.12529 0.981015 -0.896281 0.484291
178 1 4.24125 6.25865 6.15817 0.626417 1.04112 0.332755
179 1 7.16102 4.02002 9.37549 -1.3159 -0.268608 -0.985628
180 1 4.47614 7.29904 6.68069 -0.76144 0.562939 -1.27787
181 1 7.75309 5.59687 0.440381 -0.833371 -0.486366 -0.467148
182 1 5.5975 7.89392 2.06698 -0.0768376 1.03585 -0.176129
183 1 4.80287 7.01898 8.57839 0.818887 0.167926 -1.33523
184 1 8.01658 6.62301 6.80042 -0.971483 0.800603 0.223643
185 1 8.06308 1.84071 4.26522 -0.387103 0.479502 -0.0318794
186 1 7.52746 7.27571 4.93032 0.639556 0.028226 -0.205256
187 1 8.08974 4.38383 1.63479 0.380293 -0.553782 0.0415633
188 1 9.30066 6.79759 8.82329 -0.441099 -0.0652778 0.996171
189 1 8.08489 3.46886 4.97881 -1.73418 -0.434734 0.95979
190 1 8.96473 3.96963 3.30022 0.453555 -0.350518 0.517756
191 1 6.8759 2.7166 8.42073 -0.806965 0.0649748 -0.34269
192 1 8.181 5.43547 6.81931 0.118339 -0.978258 -0.818079
193 1 3.98299 7.12803 5.48948 1.13342 -0.641986 -0.129374
194 1 5.21672 1.14721 7.65498 -1.57761 0.555469 -0.948466
195 1 0.473633 8.18573 7.80536 0.390578 -1.07802 -0.527114
196 1 5.61221 6.95176 1.64664 0.165022 -0.0924133 0.328791
197 1 3.86132 3.37666 5.26258 -0.945162 -0.720438 0.0566282
198 1 0.969278 4.69203 6.31032 -0.557616 -0.520446 0.00181636
199 1 8.24755 5.93583 5.87248 -0.415803 0.72155 -1.00957
200 1 4.81309 7.80277 5.1871 -1.08584 -1.12739 0.966559
201 1 0.337755 3.34672 0.849179 0.912216 1.01255 -0.286414
202 1 8.98074 3.75246 4.44647 -0.457631 0.752336 0.433424
203 1 9.32523 5.59113 6.29305 0.478764 -1.0541 -0.767967
204 1 7.0474 1.80063 4.7685 -1.17675 1.35511 -1.12588
205 1 1.30891 8.78441 6.37764 -1.12835 -0.0152472 -0.0551166
206 1 4.78895 9.14231 3.80912 -0.579804 0.75888 -1.18543
207 1 7.38005 4.75972 7.43396 1.17822 0.202336 1.5879
208 1 1.5658 3.82386 6.01443 0.8658 -0.215434 0.0183989
209 1 6.5979 7.40284 1.50749 0.361975 0.151245 0.792104
210 1 1.46203 5.28401 8.81397 1.85609 1.44362 1.12509
211 1 3.96688 2.25188 5.16546 0.732969 0.843255 -1.55186
212 1 3.70356 3.98614 1.90567 -0.978541 -0.192997 0.310722
213 1 4.13948 2.84505 6.20206 0.187378 -0.755718 0.403802
214 1 0.731045 6.53788 0.25501 0.0160205 0.162076 -0.097341
215 1 7.09887 7.29094 8.77252 -0.537331 -0.265467 -0.590081
216 1 3.68938 2.61685 8.97597 0.174669 -1.3457 0.559698
217 1 5.76466 1.05518 1.87152 -0.419801 -0.0990786 0.0246389
218 1 0.179409 2.90313 8.35628 0.159912 0.399177 0.721417
219 1 4.76896 2.43344 0.886366 -0.420704 0.123261 -0.483937
220 1 8.68399 3.36719 8.4953 -0.267072 -0.794151 2.46732
221 1 6.56723 2.6647 3.61383 0.854026 -0.341876 -0.311371
222 1 5.35096 5.27751 6.73531 -0.0843278 1.15758 -0.357333
223 1 8.55383 5.23013 1.91856 0.547006 -1.4091 -0.632956
224 1 5.76636 7.92131 0.916938 0.204386 -0.319803 0.360918
225 1 2.84817 1.821 3.98914 0.760582 -0.0946502 -0.910719
226 1 8.13582 7.48279 6.07836 -0.0737036 0.788791 1.1387
227 1 2.88731 3.92518 2.59137 0.0123776 -0.900683 0.00144369
228 1 8.56735 8.42175 7.80387 0.480168 0.670065 -0.0944558
229 1 3.23359 7.5332 0.31239 -0.130098 0.520363 0.313132
230 1 3.48509 0.690486 6.67263 0.334272 -0.30172 0.0241773
231 1 3.60125 7.79741 7.29024 0.378826 0.310813 -0.338739
232 1 1.79303 8.2688 8.07633 -0.271941 -0.9208 0.899098
233 1 7.87697 7.71899 8.21102 -0.44075 0.528658 -0.410909
234 1 5.32927 2.59818 9.39243 0.754781 -1.3504 -0.0113534
235 1 0.901049 5.3042 4.50528 -0.207677 -0.11948 0.119512
236 1 7.3224 5.87328 6.16527 -0.312642 -0.512547 -2.07321
237 1 7.6491 3.56483 7.04485 1.05163 -0.817458 0.184829
238 1 4.22629 1.94954 0.143412 1.29432 -1.37742 -1.00502
239 1 8.9423 4.03146 1.12918 -0.677289 0.652198 1.1424
240 1 4.67806 8.79057 4.8916 1.43347 0.515283 -0.60515
241 1 5.46232 6.0399 3.05283 -0.916633 -0.823261 -1.04201
242 1 8.03444 3.36805 3.11969 0.176171 0.0515389 0.233211
243 1 1.23621 0.89734 2.1335 0.210787 0.751995 -1.07295
244 1 8.03451 4.06304 7.92472 -0.0657903 -0.0141115 0.342605
245 1 7.20371 4.96131 2.79502 0.341638 0.753726 -0.382203
246 1 2.52232 6.9266 9.12773 0.867429 -0.789457 -0.901143
247 1 1.38613 2.11703 1.39278 -0.486834 -0.305379 -0.508
248 1 9.3092 8.68909 8.56955 -0.102957 -0.209752 0.404875
249 1 1.35919 7.04987 4.39506 1.09961 -1.12667 -0.515181
250 1 2.30046 8.92133 2.59869 0.228473 0.00849025 0.493191
251 1 2.18601 7.14247 7.31552 0.221558 -1.19273 -1.03328
252 1 3.57386 3.37288 3.44656 0.319371 1.53064 0.1557
253 1 0.816913 6.26408 6.10942 -0.40522 0.0648886 -1.11265
254 1 5.31109 1.46237 3.97578 1.44843 0.845623 0.184597
255 1 8.90042 8.11732 0.191116 -1.13237 1.15995 -1.05208
256 1 8.88573 7.71195 8.51991 -1.48755 -0.0246803 0.59034
257 1 4.78879 0.413507 4.6306 -0.643828 0.378639 -0.578622
258 1 4.18076 1.52467 2.98345 1.47661 -1.03724 0.672791
259 1 2.73577 5.79167 1.36731 0.112742 -0.282654 -0.797611
260 1 5.08217 8.65067 7.87233 1.10026 0.325012 -1.33138
261 1 4.90857 1.73814 8.84363 -0.294841 -0.176125 0.560601
262 1 3.27533 4.37883 3.37524 0.567776 0.0591719 -0.934458
263 1 5.29655 4.01569 5.46667 -1.0957 -1.08505 1.69211
264 1 5.86963 2.7174 2.31602 -0.744748 -0.526618 0.309567
265 1 7.22927 5.73223 3.65847 0.938088 0.962269 0.68358
266 1 8.60706 6.41414 2.38919 -0.97009 -0.606844 1.24665
267 1 3.60492 8.55036 0.0276376 0.0234237 0.691084 -0.0217745
268 1 5.92499 3.34317 6.7109 -0.782323 0.146387 -1.22186
269 1 8.40029 6.16117 1.3558 -0.559658 -0.505132 0.843648
270 1 8.02822 3.33774 6.063 -0.513494 0.869144 2.08836
271 1 2.83502 0.344591 3.32167 0.578206 0.167521 0.810354
272 1 6.30279 4.02893 5.82361 0.0607276 -0.161992 1.11266
273 1 8.78104 5.94411 3.48091 -0.358878 -0.595323 -0.0212023
274 1 6.66169 3.38947 0.555591 -0.421017 -1.33293 -0.152837
275 1 2.8642 8.33697 7.76771 0.275467 0.738483 -0.573845
276 1 5.51749 7.28135 9.34675 -0.609092 1.44862 0.519516
277 1 6.24906 4.33172 4.8306 -1.40304 -1.29145 0.385333
278 1 1.22709 5.00187 1.21236 -1.32081 0.696281 -1.52077
279 1 9.39623 7.24009 0.344663 1.03046 -0.958525 1.22673
280 1 5.66591 0.27048 7.83352 -0.293753 0.793109 -0.0287098
281 1 5.96194 6.8964 3.47636 0.180167 -0.180893 0.138263
282 1 3.11341 6.67721 4.34856 0.305996 0.420787 -0.270992
283 1 8.96755 6.63686 6.218 -0.269137 -0.135585 1.81728
284 1 3.8042 0.518943 8.5384 0.120722 1.16784 -0.166376
285 1 4.30677 4.60462 8.70013 -0.0630017 -0.13413 -2.6366
286 1 2.47628 0.549922 7.23189 0.329369 0.114416 -0.162072
287 1 8.66179 3.44521 2.3382 0.253248 1.42504 -0.95268
288 1 3.88821 0.0603227 1.93576 0.770136 -0.249142 -0.533953
289 1 6.64043 4.21943 2.31021 -0.833791 0.816611 -0.415977
290 1 2.31149 5.12088 3.62829 1.08883 0.209462 0.472282
291 1 1.4503 0.5794 7.28988 0.0998118 0.5109 0.87302
292 1 1.99783 5.24042 4.71979 -0.912055 0.379672 -0.343153
293 1 3.21042 7.68271 4.87686 0.155774 0.193853 -1.02996
294 1 3.75008 6.62198 7.08285 0.597719 1.04485 0.195604
295 1 3.6056 6.14192 5.18987 -0.406353 0.0968015 0.149595
296 1 5.4645 3.39045 4.62949 0.418102 -0.35537 1.78704
297 1 4.07219 3.57583 8.98151 -0.516726 -0.586829 0.339842
298 1 7.94916 2.17853 0.693281 0.403036 0.589932 0.0772521
299 1 0.652029 7.99963 1.69672 -0.433511 0.402507 0.216212
300 1 6.37658 1.53092 1.14514 -0.346023 -0.588031 -0.278107
301 1 0.626567 2.13013 7.81294 -0.719771 -1.85158 -0.266245
302 1 6.48018 8.43249 6.02104 0.612958 0.42277 -0.514377
303 1 4.56729 4.44594 6.86135 0.388848 -1.17463 1.1553
304 1 6.43849 1.35313 0.163382 -0.235705 1.55119 -0.843145
305 1 1.32989 4.70978 0.201824 -0.841259 0.619045 -0.228666
306 1 8.71392 0.189044 6.91459 0.668038 0.106999 1.17602
307 1 4.58059 6.66466 1.65596 -0.20148 0.639965 -0.199469
308 1 6.21803 8.88936 3.85303 -0.09752 0.269568 -0.827636
309 1 3.65569 5.11931 4.72481 0.773096 -0.239475 0.936002
310 1 8.94447 2.13416 3.92219 -0.744411 -0.23952 -0.228015
311 1 5.76644 2.29154 8.36805 0.460945 -0.177698 0.26464
312 1 4.14184 7.14187 2.36566 0.664334 0.76085 -0.971384
313 1 9.07022 7.72162 1.22345 -0.696807 0.691609 -1.27865
314 1 5.65548 4.69345 8.24523 0.19594 0.799772 0.898367
315 1 6.14445 5.80798 6.52311 0.0224647 -0.0647418 0.464606
316 1 1.52469 8.49322 3.06447 0.981686 0.3995 0.565458
317 1 3.84865 3.0352 0.547645 0.330931 -0.484508 0.0981747
318 1 0.33738 2.67688 5.32878 0.639479 -0.323498 -0.487393
319 1 7.49478 8.12623 6.46635 -1.28235 0.482381 0.173394
320 1 8.04104 2.45013 2.31116 -0.142057 -0.167414 -0.671068
321 1 4.63384 8.75699 6.01599 -0.515546 -1.48992 1.28723
322 1 0.343353 0.488569 7.02494 0.916368 -0.834742 -0.515195
323 1 3.33616 5.54348 3.18642 -0.535003 -2.44313 -0.37499
324 1 5.47282 1.6253 0.321474 0.0191796 1.0458 -0.859121
325 1 4.95692 1.93244 4.89866 -0.103025 -0.729816 -0.0341752
326 1 7.82557 9.38605 7.42397 -1.17337 -0.412843 0.0796948
327 1 0.940811 7.06953 8.73084 -1.27395 -0.448459 -1.47656
328 1 4.57935 5.59091 1.8093 0.211989 0.148401 -0.997607
329 1 1.84629 3.46844 4.28229 -1.07506 -0.389403 0.827971
330 1 3.57398 2.64434 4.25603 1.35741 0.555248 0.106619
331 1 4.45007 3.83585 6.05017 0.556012 -0.475156 -0.302886
332 1 1.60517 4.13999 7.0746 0.401262 1.05158 -0.484243
333 1 6.50779 6.52164 0.935409 -0.542009 -0.406491 -0.59836
334 1 3.54182 0.211182 7.60399 1.2699 0.236181 -0.383309
335 1 3.76317 1.64282 1.00742 1.70805 -1.03887 -0.0945618
336 1 0.883001 0.331408 6.11289 -0.545071 1.69559 -0.468328
337 1 8.63045 3.56093 0.326207 -0.206828 0.0739004 -0.0291973
338 1 5.83518 2.105 3.20828 0.63151 -0.56475 -0.144321
339 1 8.2771 8.51589 8.849 0.663111 0.57406 0.885782
340 1 2.7335 4.9496 2.66654 0.668954 -0.549746 -0.641344
341 1 1.35442 1.09614 0.400459 -0.886373 0.639474 -1.82559
342 1 3.67955 7.96351 8.41538 -0.915621 0.907943 0.974391
343 1 2.05391 3.28329 2.78726 0.517051 -1.12443 -0.87691
344 1 3.18512 0.91999 4.57479 0.540331 0.638931 0.861378
345 1 6.98963 8.55881 4.37697 -0.327929 0.798825 -0.414868
346 1 0.48112 5.79315 7.09848 0.712448 0.0387919 0.737707
347 1 9.10713 4.03388 7.53879 -0.5476 0.779147 -0.102994
348 1 5.25168 3.12943 7.69324 -0.628051 0.212533 -0.0419673
349 1 4.0685 1.10121 1.85456 -0.248032 -1.29561 0.453571
350 1 4.77615 3.69583 3.7811 -0.243432 -0.451559 -1.2317
351 1 7.07359 9.0542 1.95666 -0.327101 0.444377 0.418768
352 1 5.10211 5.2287 9.11186 -0.104512 -0.844859 1.13122
353 1 1.3551 1.21154 4.78149 0.46416 -0.14078 1.1313
354 1 2.55697 0.695585 8.38713 -0.493098 -0.236375 -0.559365
355 1 8.93799 3.58257 6.47468 0.452811 -0.373735 -0.727479
356 1 0.443984 4.30823 0.641236 -0.73646 -0.933773 -1.20943
357 1 5.58747 3.1163 1.10655 0.315949 -0.316588 0.759164
358 1 0.954236 8.75323 8.50048 -1.1057 -1.76209 -0.643
359 1 3.02625 3.5405 1.23027 -0.380652 -0.38281 1.09565
360 1 6.00074 3.09357 5.6552 0.332177 0.492011 -0.00140741
361 1 3.40681 1.90137 2.26183 -0.23857 -0.0695907 0.605673
362 1 6.60529 3.25701 1.85628 -0.0068259 -0.494265 -0.571877
363 1 8.33092 7.36037 1.94652 0.673193 -0.212161 1.48379
364 1 4.29032 1.36194 8.04341 -0.222845 0.502323 -0.26029
365 1 1.15935 9.07635 1.8801 1.43955 0.163204 0.0869731
366 1 6.62777 7.87118 5.11382 -0.988637 0.51756 0.142057
367 1 7.85807 0.812783 4.74282 -0.147729 0.031816 1.27615
368 1 2.42007 7.45748 1.40608 -1.0049 -1.11585 1.15471
369 1 7.69097 2.43714 5.41801 -1.11773 0.248406 0.441021
370 1 4.88075 1.3185 1.23042 -0.312525 1.04745 -0.326249
371 1 8.18538 0.866766 2.67569 0.460376 -0.415337 -0.118086
372 1 5.08704 9.35225 0.273789 0.234127 -1.01321 0.815773
373 1 7.88671 0.83053 6.75117 -0.795324 0.185581 -0.0290916
374 1 6.90108 6.84214 3.88608 -0.71738 0.336542 0.43465
375 1 5.30157 5.77893 5.87123 -0.290132 0.492223 2.39818
376 1 2.56637 1.73677 8.03821 0.417832 -0.696802 0.0699545
377 1 2.71972 5.03112 8.13657 -0.852897 -1.16598 -0.796841
378 1 8.11383 0.0366494 2.1564 -1.22695 -0.506951 -1.09438
379 1 8.97674 3.41825 5.43992 -0.237012 0.325669 0.26744
380 1 8.652 7.19543 3.05008 -0.256405 -0.810645 -0.282209
381 1 1.64265 5.34853 6.88595 0.0320308 -0.250225 0.71499
382 1 6.55165 2.05471 1.96275 0.490914 -0.825768 -0.793051
383 1 6.9786 2.53885 1.0835 -0.320473 0.476362 0.80268
384 1 7.12066 8.1674 1.04865 -1.41389 -0.260126 0.293468
385 1 5.05645 8.78115 1.92197 0.348483 0.0134359 -0.272873
386 1 0.302014 2.21696 1.14199 1.30723 0.896314 -0.0258887
387 1 7.33484 1.70993 2.60214 -1.45245 -0.298654 -0.22058
388 1 4.83504 6.02265 8.2506 1.21589 1.10282 -0.596296
389 1 7.41837 4.20283 6.02939 -0.275416 0.280887 -0.124574
390 1 8.32146 4.5951 4.69014 1.49589 0.323725 0.806449
391 1 4.71966 0.950934 0.167586 0.364904 -0.131031 -1.36183
392 1 2.29207 0.945116 4.02783 -0.853647 0.0130974 -0.485503
393 1 4.5748 0.246641 7.64171 0.669423 -0.484768 -0.872507
394 1 9.39589 4.46509 6.13488 -0.151076 -0.647584 -0.107334
395 1 8.02062 5.39907 8.75703 -0.644169 -0.214704 0.110565
396 1 3.01608 1.77953 5.31204 -0.402875 -0.501367 -0.487669
397 1 7.09629 3.38587 5.35805 1.43108 0.465762 0.274119
398 1 7.52148 6.96906 1.25045 0.523616 -0.264889 0.339226
399 1 2.07403 1.56729 2.26398 0.0142458 0.862809 -0.506675
400 1 6.94673 8.02905 2.19431 -0.520531 0.62142 0.284449
401 1 3.50827 1.94455 6.17503 -0.585244 0.592012 -0.548369
402 1 7.23701 0.308102 5.39299 -2.02571 0.886241 0.914478
403 1 0.676823 3.01694 1.74523 0.188737 -0.989565 -0.382515
404 1 5.13555 6.97455 2.62785 1.66655 1.45409 -1.60959
405 1 4.0944 1.73184 6.94395 -0.349188 -0.682027 0.599386
406 1 2.16742 4.14263 5.14761 0.392913 -0.327148 -1.61302
407 1 5.43797 8.3633 9.37311 -0.336087 -0.110447 0.341709
408 1 4.7285 2.73025 8.51814 0.802426 -0.680105 0.588943
409 1 2.88566 1.3279 2.93946 -0.607557 1.08062 -0.435428
410 1 0.496745 3.91605 6.88688 0.0497498 -0.154098 -1.28601
411 1 6.49183 9.08098 5.28394 -1.31275 1.53092 0.393261
412 1 5.65888 0.4587 3.69844 1.00015 -0.953583 0.216686
413 1 2.13648 7.58264 0.441143 1.17474 -0.948056 0.874414
414 1 1.53764 7.5053 3.48121 -0.399385 -0.844177 0.743884
415 1 1.40172 3.98043 1.10134 1.39872 -0.268777 0.329967
416 1 0.00130359 8.72051 3.5175 -1.05913 -0.363381 -0.130829
417 1 1.38315 8.08472 4.94278 -0.185096 -0.459782 0.57149
418 1 3.50859 0.537526 1.05448 0.136571 0.0435889 0.866863
419 1 7.65104 2.43446 3.41954 0.660237 0.410283 1.94559
420 1 0.0209229 1.74839 4.91874 -0.475233 -0.270522 -0.691616
421 1 7.97888 8.46291 1.74886 0.0789052 0.205136 -0.520139
422 1 3.07138 2.7291 5.74618 2.17721 0.616984 -0.955828
423 1 7.99433 7.52384 9.27929 -0.564029 -0.430381 -0.573973
424 1 7.39868 8.49692 5.42483 1.22357 0.502323 0.24497
425 1 1.83935 1.95665 5.44247 0.517143 -0.144108 -0.0918202
426 1 9.0868 0.870164 8.66772 -0.0655859 -0.458055 -1.23011
427 1 6.4246 5.71693 5.58082 -0.378786 -0.0899547 -0.378385
428 1 3.32832 2.71489 6.84113 -0.620065 0.0512927 -1.48713
429 1 4.77565 3.34915 0.475046 -0.745686 -1.69823 0.501602
430 1 2.41982 8.88492 6.1368 -0.55526 1.25959 -0.400951
431 1 9.20363 7.46448 7.52555 -0.347867 -0.318512 -0.332305
432 1 5.91836 0.818486 6.95688 -0.743615 -0.85127 0.645192
433 1 3.57353 2.10452 7.78206 -0.271052 -0.414895 0.471285
434 1 4.71002 4.43383 2.13904 -0.181122 -0.485951 0.307476
435 1 1.9442 0.692909 2.83338 -0.164066 0.907686 -0.577279
436 1 1.98444 3.41568 9.14566 0.133117 -0.350045 0.587194
437 1 8.47163 5.05703 7.76347 0.204751 -0.276485 -1.41111
438 1 1.66058 8.85934 0.147204 0.549392 -0.25784 -0.240664
439 1 5.04661 6.26628 4.14859 -0.829343 -0.147788 0.414999
440 1 0.557674 4.54127 2.77374 -0.076175 1.11401 0.321493
441 1 9.12661 0.79654 2.01435 0.405998 0.0949087 0.40381
442 1 4.95922 7.09614 0.85032 0.325744 0.553239 0.122124
443 1 3.9819 6.52918 8.10692 0.00477061 -0.917741 -0.375487
444 1 7.87301 6.47087 4.2276 0.203426 -1.28143 -0.507144
445 1 4.87117 0.603356 8.56812 0.285175 0.557634 -0.0560007
446 1 7.36725 5.85791 2.32755 -0.311216 -0.960698 0.0687374
447 1 1.1264 7.39014 0.568054 0.174945 0.691393 0.000298182
448 1 4.44202 7.66712 7.81652 -0.919172 0.114986 -0.48583
449 1 2.18596 1.50869 8.94912 0.221377 -0.803456 -0.443686
450 1 2.07397 9.05289 7.39338 -0.379614 0.314575 -0.0389594
451 1 6.85819 0.702033 8.67946 0.74376 0.684394 -0.0751964
452 1 5.73615 6.71327 8.305 0.240751 -0.110129 -0.0652981
453 1 5.48115 7.85988 8.4916 -0.713534 0.48136 0.698413
454 1 5.57868 6.33855 4.98845 -0.317795 -1.2015 0.806119
455 1 4.04287 5.54144 6.89167 0.500884 -0.66543 1.10991
456 1 0.928353 6.42126 2.31669 -0.56066 0.279288 -0.822804
457 1 4.79748 4.26072 0.1086 -0.95004 -1.0941 -0.0763447
458 1 8.56881 7.25543 4.40507 -0.452159 -0.707251 -0.580073
459 1 2.96492 7.01155 2.30327 0.135063 0.274661 -0.746219
460 1 8.23839 2.53495 9.14721 -0.230861 0.598376 -0.98954
461 1 9.06757 4.97157 3.2443 -0.561107 0.477304 -0.853606
462 1 1.05382 6.63635 3.36141 1.01981 0.326279 0.527357
463 1 2.00734 0.46291 9.33649 0.487182 -0.644475 1.13885
464 1 9.2672 6.23279 0.85318 0.991608 -0.668296 -0.107004
465 1 1.66075 8.11476 2.13976 0.238534 -0.532676 0.616709
466 1 8.09846 7.83335 0.924886 0.542635 0.959814 -0.717467
467 1 5.26004 1.2034 2.96216 -0.0518275 -0.348525 -0.0612251
468 1 6.6885 8.8913 2.96346 1.0118 0.487864 -0.904242
469 1 2.40066 2.1714 1.21957 -0.216202 0.650151 -0.054425
470 1 6.92963 5.31796 4.6287 1.56769 -0.0820128 -0.913939
471 1 2.6159 8.59355 0.34255 0.549234 0.327861 1.55429
472 1 2.36996 7.00707 6.26274 -1.08089 -0.352164 -0.541499
473 1 8.94403 1.1745 6.87195 0.598818 -1.27091 0.183593
474 1 6.73312 1.68495 8.5 0.922267 -0.830749 0.0707186
475 1 4.49541 8.88909 8.77636 0.45245 0.000685669 -0.138781
476 1 2.90376 5.68813 4.39969 -0.355609 0.408226 0.42461
477 1 8.42748 6.92515 7.81985 0.464775 -0.283942 -0.0938861
478 1 5.65805 9.2592 4.64373 -0.0795713 1.29449 -0.137377
479 1 7.32471 0.704345 2.04617 0.40767 -0.902029 -0.447827
480 1 6.01081 6.76267 5.9943 0.156124 -0.19481 -0.433621
481 1 2.75825 4.5121 4.43455 -1.07043 -0.313445 -0.309148
482 1 4.59716 6.19582 5.14655 0.119002 -1.64262 -0.766838
483 1 1.13542 4.94908 3.48184 -0.522956 -0.160731 0.130277
484 1 0.190081 3.67652 9.12245 0.640417 0.238794 0.414563
485 1 6.90226 5.64692 7.18028 -0.0697289 -1.31505 0.234991
486 1 1.74403 4.57393 2.69584 0.310094 0.0739101 -0.324683
487 1 0.643631 6.25959 4.43295 -1.4274 -0.402182 0.708065
488 1 6.6413 2.31237 5.62446 -0.350078 0.861009 0.983341
489 1 6.44021 8.61529 0.423449 -0.7068 -1.30583 0.996765
490 1 5.52098 5.80775 2.0615 1.30074 0.540998 -0.0202472
491 1 4.71792 5.33298 2.83963 0.284089 0.47025 -0.263044
492 1 1.62418 9.05716 5.46126 -0.564761 -0.116043 -0.657539
493 1 8.01844 4.47751 0.584344 0.519158 1.50005 0.251193
494 1 4.25072 4.13224 3.02011 -0.2971 0.396612 0.815383
495 1 3.10234 8.25053 1.07416 0.656431 -1.11921 -1.04035
496 1 2.73296 0.0544373 5.21152 0.829464 -0.407105 -1.13064
497 1 6.40312 7.68552 6.86214 -0.244459 -0.102723 0.116729
498 1 2.63701 1.17923 0.475126 0.270948 -0.229467 -0.394663
499 1 3.51292 3.08826 2.3247 0.493598 0.345604 0.811477
500 1 6.78835 6.29744 8.10793 -0.440892 -0.447911 -0.367134
501 1 5.77364 4.0154 3.66673 0.441381 -0.125519 -1.51763
502 1 7.85905 3.87038 3.96019 -0.584163 -0.530799 0.252233
503 1 3.29905 1.1724 7.64037 -0.0717373 -0.0929265 1.25371
504 1 2.89644 0.549395 2.28474 1.23861 -0.0553667 1.12519
505 1 7.71808 3.18525 0.507045 0.282818 -0.78474 -0.148529
506 1 5.72052 5.73893 7.61127 0.527458 -0.699255 1.02963
507 1 5.52605 7.65503 7.48092 -0.135595 -1.64283 0.419872
508 1 0.862315 8.18347 3.85236 0.626504 -1.1351 0.891339
509 1 3.34543 2.59231 1.40078 -0.652646 0.110448 0.257813
510 1 5.73938 4.77745 0.563056 1.13119 0.691852 0.380931
511 1 6.22689 1.74221 7.5464 -0.0391268 -0.974392 -0.639743
512 1 1.846 6.26439 1.90844 -0.428656 0.492775 0.385393
513 1 4.67348 7.78718 1.56307 -0.347328 -1.11906 -0.155911
514 1 8.21038 5.50531 2.82588 0.958535 0.591979 -0.807657