ITEM: TIMESTEP
140
ITEM: NUMBER OF ATOMS
1000
ITEM: BOX BOUNDS pp pp pp
0.0000000000000000e+00 9.4000000000000004e+00
0.0000000000000000e+00 9.4000000000000004e+00
0.0000000000000000e+00 9.4000000000000004e+00
ITEM: ATOMS id type x y z vx vy vz
1 1 4.74219 0.165137 1.09368 0.224043 -0.934136 0.155194
2 1 7.94681 2.9948 7.85253 -0.505188 -0.675137 -0.415359
3 1 0.419799 3.28158 3.68401 -0.158842 1.80003 0.651757
4 1 0.782509 8.18504 7.04045 0.172813 0.327919 1.19124
5 1 5.62346 2.12934 5.85973 0.193963 0.501136 0.00392567
6 1 7.14172 7.30152 5.98688 0.547434 0.368781 -1.55175
7 1 1.15723 8.38012 0.691289 0.0760583 -1.16579 1.24959
8 1 2.29787 2.13853 5.99731 -0.54998 -0.388826 -0.216793
9 1 1.17254 2.85152 4.8865 -0.71267 0.91644 -0.231787
10 1 2.9085 9.14325 1.68087 -0.312611 0.201237 0.568867
11 1 8.40795 6.95167 0.680373 0.969708 0.458634 0.569319
12 1 7.18808 2.96106 2.59585 0.311446 -0.179454 0.759645
13 1 8.2862 1.74714 6.27465 0.209821 0.574597 -0.0150201
14 1 3.64149 6.1402 1.59205 -0.216547 0.302459 0.33145
15 1 7.70952 3.30138 1.50665 -0.880605 0.485608 -0.0663379
16 1 1.32524 3.01318 8.52625 0.304896 -0.854692 0.949193
17 1 8.2407 4.54343 6.89926 1.70154 -0.0421328 -1.23004
18 1 0.352157 3.40327 2.55306 0.377988 -1.8068 -0.329003
19 1 6.19154 2.9989 9.09855 -0.11308 0.0982873 -1.57353
20 1 4.21687 3.34912 7.08362 1.16992 -0.109075 0.854035
21 1 1.77346 5.08512 5.75502 -0.55449 0.53495 -0.443859
22 1 2.97087 3.54677 4.87501 0.340579 0.958286 1.01592
23 1 5.18329 3.41665 8.85539 -0.282438 -0.368103 0.366021
24 1 2.36322 4.07069 8.23529 0.399222 -0.678327 -0.549748
25 1 6.21369 2.81884 7.59995 0.7092 0.089406 -0.0719136
26 1 2.1179 3.20831 5.39581 0.0781183 -0.220864 -1.54473
27 1 8.43817 1.06347 7.86954 -0.553829 0.28872 -1.19436
28 1 4.52098 6.31107 3.40468 0.995178 -0.522407 -0.451687
29 1 2.97789 0.023721 9.31702 -0.802836 -0.218383 -0.130597
30 1 7.46729 2.83349 4.31093 0.868143 1.60575 0.546822
31 1 8.6674 3.09712 1.05125 -0.344385 0.481838 0.470725
32 1 4.27251 0.254792 5.75312 0.760742 0.271953 1.54758
33 1 1.89019 7.30022 8.33399 0.0472038 0.687642 0.28459
34 1 3.34752 7.3201 1.53426 0.465054 -0.579536 0.0694943
35 1 9.22393 0.603352 6.0492 -0.168465 0.271422 -0.591959
36 1 6.57459 6.33574 1.91619 0.904649 0.116032 -0.413608
37 1 8.49624 1.57457 9.24418 0.291186 0.83041 0.773531
38 1 1.24847 1.61245 3.01646 1.09662 0.353358 -0.591644
39 1 0.396704 0.835334 4.27254 -0.870042 0.172339 -1.8178
40 1 2.44107 4.10809 0.432563 -0.952906 -0.255575 0.694211
41 1 6.18789 0.0145091 6.19373 -0.181638 -0.244821 0.982289
42 1 1.41796 1.96129 8.75058 0.433609 -0.148206 -0.0061443
43 1 1.91835 3.03699 1.64671 -0.735021 -0.93529 -0.474514
44 1 7.24626 1.40264 5.57567 -0.318871 0.0448975 -0.965052
45 1 6.4739 2.2354 6.57316 0.134519 0.0954328 0.484566
46 1 7.81584 6.64367 3.11617 0.266465 -0.488054 -0.576533
47 1 6.24112 5.54636 0.302732 0.167881 0.732293 0.735779
48 1 7.63111 7.62071 3.88418 1.3 0.196946 -2.0715
49 1 3.42513 4.59236 6.74719 -0.442237 0.0293855 0.495789
50 1 8.72075 7.99218 3.57349 -0.830751 -0.701965 -0.745421
51 1 6.29436 7.26561 2.56375 0.440173 0.664203 -1.33086
52 1 1.06041 3.56186 0.142257 0.35152 0.0626783 0.0204339
53 1 5.46998 2.95139 3.13863 0.640054 -0.569745 0.553396
54 1 0.0748067 6.31573 5.35535 0.268747 0.00734162 0.0424171
55 1 8.97004 5.29043 5.51822 0.844763 1.12549 1.15803
56 1 0.0742864 4.40853 5.01413 0.250321 1.05846 -0.835624
57 1 0.254003 9.02974 6.42786 0.247647 -0.0497569 0.218248
58 1 5.06378 3.92468 1.17155 0.475165 0.115435 0.184724
59 1 0.347417 7.54907 4.75733 0.0319764 -0.89939 -0.25622
60 1 0.459153 5.43508 0.448211 1.05014 -0.78834 -0.981496
61 1 5.50565 8.97312 8.66101 -0.822152 0.340708 -0.499909
62 1 0.442877 0.331554 1.62379 -0.98916 1.47453 0.245501
63 1 7.27498 7.20534 7.65438 0.239137 0.690582 -0.195276
64 1 3.51028 5.257 8.99916 -0.412027 0.227467 -0.750275
65 1 2.44132 2.51341 8.78666 -0.61563 -0.299548 0.399021
66 1 6.23469 4.7757 8.97093 -1.13309 0.107312 -0.197596
67 1 6.4259 5.43611 2.33818 1.13197 -0.634821 0.484028
68 1 4.26437 5.09283 0.191576 -0.285515 -1.09214 -1.14534
69 1 2.63496 2.93138 0.680204 -0.0489973 0.404086 -0.874279
70 1 0.205499 1.5081 3.39802 0.131236 -0.629742 -0.237594
71 1 7.26505 5.90718 1.25084 -0.28989 0.48934 -0.119316
72 1 7.05686 4.91183 1.72141 -1.30753 -0.0277326 -0.275252
73 1 2.0522 8.59803 1.18861 0.60626 -0.12278 0.0833146
74 1 4.67894 5.10595 7.83359 0.423123 -0.666395 -1.02286
75 1 8.29906 9.35187 4.95534 -0.382389 -0.485853 0.564087
76 1 6.81126 7.96908 3.30675 0.317385 0.341156 -0.695366
77 1 4.77599 3.92535 7.94636 -0.165621 0.224927 0.116464
78 1 2.39666 4.7941 9.08431 -0.436841 0.589914 -0.272416
79 1 7.71135 7.73737 2.88871 0.155738 -0.814869 0.575605
80 1 0.12382 6.54274 2.75929 0.692223 -0.945485 1.28637
81 1 5.85856 0.292001 2.58947 -0.60398 -1.22397 0.0358984
82 1 9.32835 3.14386 7.47075 0.574828 0.793534 0.338018
83 1 3.34232 8.55254 4.34362 0.953719 0.233117 -0.0550858
84 1 0.778647 4.74594 7.44767 -0.481996 -0.764478 -1.04297
85 1 2.16097 2.13646 2.9952 0.0164735 0.415832 0.937366
86 1 3.33748 4.2739 8.65306 0.457277 -0.123306 -0.220933
87 1 9.04332 4.36929 2.22411 0.753455 -0.321015 -0.486359
88 1 0.720063 1.63288 2.00702 0.520205 -0.530486 0.490452
89 1 4.36976 2.11055 1.79844 -0.367893 0.71013 -0.826434
90 1 7.26277 7.06413 2.27042 -0.154513 0.752131 -0.558484
91 1 4.48353 2.53799 3.51623 -1.26503 -0.470475 0.23878
92 1 0.74094 1.2299 8.52424 -0.139779 0.204048 0.186178
93 1 3.83814 5.8911 2.67474 -1.3846 -0.74646 0.119931
94 1 4.83543 8.39888 0.94194 0.737498 -0.0942328 -0.997606
95 1 6.28224 6.11878 4.23223 0.943439 -0.432677 -0.522251
96 1 3.85521 8.55146 7.60021 1.3476 0.0396592 -1.39347
97 1 5.60265 4.70675 3.0157 -0.141159 0.0198664 0.133352
98 1 8.44205 8.69136 2.71955 -1.15862 -0.760888 -0.68497
99 1 1.06285 9.24989 2.72704 0.00593971 -0.138187 0.528266
100 1 6.76904 0.168335 7.79221 -0.423857 0.113279 -0.402173
101 1 8.70866 5.20828 0.905429 0.959546 0.001594 0.755468
102 1 7.63537 6.24443 8.62631 0.512395 0.329334 -0.938591
103 1 4.90411 0.472805 2.16961 -0.447731 0.379844 -0.330656
104 1 8.74402 0.0365177 1.21623 0.00171442 -0.347323 0.0911332
105 1 7.4952 8.87681 8.2215 -1.54493 -0.849477 -0.549185
106 1 3.90533 3.07025 7.98982 2.09601 -0.349227 -0.856759
107 1 1.38152 7.0535 1.5112 0.213215 -1.21143 -0.234417
108 1 9.11889 5.54765 9.14155 -0.333047 -0.234504 -0.188622
109 1 5.4272 1.67766 6.71976 -0.0835758 -0.678503 -0.445413
110 1 2.81828 7.88783 6.72166 -0.509939 0.342726 0.11456
111 1 2.34349 0.155988 0.845557 0.215635 -1.07019 1.05911
112 1 1.33866 6.03745 5.22095 -0.241123 -0.623816 -0.223394
113 1 9.38044 8.92816 7.43932 0.843007 0.130471 0.0196511
114 1 2.23607 6.37545 4.74405 -0.972604 -1.37939 -0.730884
115 1 5.78366 8.49079 7.06492 0.479334 0.306284 -0.173715
116 1 2.12948 7.81775 2.97709 0.49976 -1.06232 1.54408
117 1 7.27128 8.32889 9.11892 -0.455892 0.57798 -1.80379
118 1 0.457667 0.236643 8.26873 -0.445717 -0.922176 0.471948
119 1 7.60339 0.0430527 2.98168 0.739544 1.24809 -0.207626
120 1 7.4348 6.76947 0.188112 -0.25291 1.15272 -0.447355
121 1 5.84904 5.82937 8.5863 -1.04437 0.597052 -0.725697
122 1 0.0593514 8.70656 0.992547 -0.44634 -1.16693 0.0608493
123 1 1.60499 2.5452 6.80462 -0.146265 0.666062 0.206392
124 1 3.44254 6.61807 3.31496 -0.241829 -1.02191 -0.880699
125 1 0.675815 2.16401 4.07805 0.652618 -0.372618 0.0286444
126 1 0.428276 7.00084 6.90194 0.252758 -0.545286 1.35979
127 1 1.80618 0.11664 4.64288 1.52214 -0.386158 0.473205
128 1 4.83252 2.87364 5.43446 -1.03101 -0.641966 0.0049916
129 1 4.74235 4.91855 1.16651 1.16446 0.327048 -0.304134
130 1 8.18406 0.762478 5.8194 0.42055 -0.329895 -0.441264
131 1 8.8879 0.847569 5.02678 -1.44889 0.178634 -0.353913
132 1 6.64768 3.7253 4.0623 -0.0223327 -0.274694 -0.545413
133 1 3.73117 3.99743 4.36466 -1.08923 -0.501106 1.5183
134 1 6.21944 2.27918 0.424433 0.225041 1.29696 -0.379772
135 1 8.43587 1.73276 5.26545 -0.271304 -0.93777 -0.657814
136 1 3.90137 5.9304 4.12944 0.14806 -0.266291 0.556482
137 1 2.7969 2.69308 7.80733 -1.7445 0.550855 -1.71617
138 1 1.5017 7.01643 5.59328 0.820833 1.41927 0.151358
139 1 0.794391 0.166758 4.99526 0.235035 0.766645 0.473543
140 1 1.14879 3.89218 3.32839 -0.494384 0.865217 0.151749
141 1 2.48018 3.09405 6.39624 -0.244213 0.35545 0.315669
142 1 3.4573 3.64135 6.28729 0.417726 0.0411156 -0.681501
143 1 3.10377 6.20017 8.71007 0.325779 -0.179146 0.666219
144 1 8.81962 8.48973 1.78062 0.10495 0.285874 -0.551473
145 1 0.488417 6.57436 7.88147 0.470872 0.144487 0.503878
146 1 5.71493 9.04326 0.923315 0.292284 0.516001 -0.274057
147 1 1.28457 7.42074 6.57142 0.292126 0.366461 -0.593515
148 1 8.97259 4.64734 8.44047 0.274402 -1.02642 -0.835906
149 1 1.87823 6.74331 2.85046 0.0534197 -1.4845 -0.17059
150 1 1.07958 7.40089 7.68154 -0.786293 0.908105 0.920716
151 1 3.94058 8.39208 5.19591 -0.890691 -0.298517 -0.950198
152 1 4.56536 9.02751 2.78088 0.290099 -1.29243 0.579822
153 1 8.87869 2.8629 2.83968 -0.0920902 -1.1709 0.413925
154 1 6.03734 6.77343 7.28126 1.12219 0.735643 -0.595306
155 1 5.34355 1.11398 5.53501 0.488978 0.0999244 -0.519154
156 1 4.01333 0.482082 2.87553 1.05798 -0.713274 0.588826
157 1 8.50845 9.403 8.0125 1.00556 0.217331 0.238156
158 1 0.605909 8.55132 4.94969 -0.314076 -1.65068 1.03394
159 1 6.20077 7.74838 4.09514 1.95156 -1.02158 0.294668
160 1 9.05886 1.31153 0.862374 -0.685519 -0.208524 -0.678376
161 1 2.30297 5.13335 0.770819 -0.517912 0.0158005 -1.56327
162 1 7.14931 4.59271 8.3969 0.275529 -1.06275 0.416226
163 1 6.44877 5.25067 8.04314 -0.677129 -1.11993 -1.56862
164 1 1.73825 5.72223 2.73756 0.195413 -0.552609 0.402475
165 1 3.47391 1.37011 8.53998 -0.572558 -0.49031 -0.703706
166 1 8.1688 5.19247 3.95999 -0.955917 0.914277 -0.462998
167 1 0.575604 8.95997 0.105411 0.205914 0.841057 -0.847089
168 1 7.0657 5.06424 0.593144 -0.125123 0.797451 1.83068
169 1 0.176102 5.39304 8.03962 1.08284 0.00153076 -0.125116
170 1 2.33799 7.21596 4.02455 -0.480536 0.146154 -0.0314973
171 1 1.01344 5.3103 2.16163 0.180823 0.687698 0.198565
172 1 6.48964 6.48271 9.18223 0.179647 -0.679285 0.278293
173 1 6.08893 8.8565 1.91639 -0.320961 0.438928 -0.0437111
174 1 2.24065 3.44711 7.40664 -0.108299 -0.376799 -0.97896
175 1 4.02267 0.0841903 0.13661 0.309727 0.2206 -0.0616944
176 1 3.27871 7.55221 3.65455 0.795559 -0.145315 -0.31689
177 1 0.995737 0.450413 9.11502 -1.91114 -0.532821 0.203707
178 1 4.21019 6.34189 6.16227 -0.545718 -0.503103 0.760782
179 1 6.97332 4.03082 9.30248 1.35243 1.15246 0.311087
180 1 4.51352 7.18818 6.7988 0.867324 -0.53477 -0.306948
181 1 7.8554 5.7863 0.394243 1.01271 -0.0426007 -0.125677
182 1 5.65681 7.89965 2.10457 0.92129 0.422861 -0.50369
183 1 4.67844 7.09526 8.75772 0.137324 0.555963 -0.797269
184 1 8.17873 6.81387 6.94534 -0.762186 0.279807 -0.894757
185 1 8.1907 2.00958 4.26428 -0.320815 0.164296 0.252017
186 1 7.62128 7.27989 4.87085 -0.11515 -0.317909 0.69744
187 1 8.03076 4.47142 1.58694 0.409525 -0.866329 -0.217582
188 1 9.15226 6.77186 8.56262 -1.16482 0.795301 1.40546
189 1 7.96917 3.50436 4.91524 1.27911 -1.30286 -0.737577
190 1 9.00011 3.7854 3.22138 0.634533 -0.265981 -0.681216
191 1 6.89411 2.74143 8.31 -1.0322 -0.140786 -0.217033
192 1 8.14539 5.69024 6.94961 0.10953 0.104982 1.04198
193 1 4.12922 7.23602 5.42985 -0.06692 -1.30991 -0.940225
194 1 5.14617 1.05654 7.52581 -0.103594 0.646483 0.472624
195 1 0.474127 8.20437 8.0779 0.283781 0.0485699 0.0847639
196 1 5.60101 6.83413 1.61101 0.854566 0.636864 -0.305264
197 1 3.89272 3.34493 5.37882 -0.519352 0.0659566 -0.430037
198 1 0.919178 4.76245 6.43828 -0.325169 -0.136126 -0.136591
199 1 8.34893 6.00435 5.96205 0.000624071 0.825496 -0.203175
200 1 4.86954 7.99326 5.22577 0.412442 -1.25439 -1.59159
201 1 0.210846 3.17249 0.62029 0.565226 0.171706 -0.164888
202 1 9.05282 3.73783 4.30102 -0.373473 -0.804716 -1.22592
203 1 9.37377 5.81923 6.3134 0.540636 0.233881 -0.971283
204 1 7.03874 1.91701 4.65836 0.174257 1.46358 -0.66381
205 1 1.28073 8.96891 6.57462 0.249867 0.224243 -0.516958
206 1 4.92022 9.04932 3.84819 -1.5981 -0.283116 0.283469
207 1 7.26358 4.86743 7.32622 -0.165879 -0.00741356 0.327183
208 1 1.53253 3.90737 6.11879 -0.957852 -0.549222 0.465374
209 1 6.51944 7.3544 1.4151 -0.708535 -0.745067 0.391202
210 1 1.47392 5.23062 8.85154 0.537694 0.166184 0.107961
211 1 3.91269 2.23749 5.09058 0.184263 0.0690689 -0.141796
212 1 4.07883 4.06557 1.92675 1.58691 -0.383895 0.33719
213 1 4.01899 2.73879 6.18186 0.403988 1.72943 1.04136
214 1 0.754781 6.39523 0.302992 -0.135582 1.47027 0.0186022
215 1 7.16281 7.32427 8.71777 -0.0161288 0.614505 -0.370834
216 1 3.69418 2.55827 8.81358 0.0692687 -0.89081 0.394113
217 1 5.6307 1.15025 1.91895 0.355782 0.486578 -0.882364
218 1 0.312687 2.94698 8.47258 0.371079 1.00227 -0.913803
219 1 4.72247 2.231 0.801083 0.275037 0.516421 -0.717865
220 1 8.81642 3.58127 8.43153 -0.493945 0.478808 -0.719665
221 1 6.59186 2.68432 3.51814 0.2333 -1.02337 -1.32021
222 1 5.20251 5.2694 6.76596 1.16581 0.163032 0.262898
223 1 8.56423 5.31078 1.96525 -0.432987 -0.0565562 0.336481
224 1 5.65228 7.73869 0.977223 -0.510516 -0.289961 -0.276526
225 1 2.77393 1.78965 3.92371 1.10104 0.718137 0.807488
226 1 8.2959 7.66774 6.1883 0.968854 -0.527406 -0.252948
227 1 3.14678 3.92308 2.45396 -0.308073 -0.118306 1.02854
228 1 8.75852 8.33438 7.9163 0.729711 -0.553958 -0.0759998
229 1 2.98398 7.48587 0.525263 0.0875514 0.115484 0.230778
230 1 3.41526 0.562944 6.52044 -0.927474 -0.268871 0.316512
231 1 3.55625 7.55755 7.37459 -1.66847 -1.80513 -0.297517
232 1 1.64507 8.25309 7.96429 -0.527319 0.656931 0.353874
233 1 7.87015 7.92394 8.3124 1.0247 -0.147572 0.391995
234 1 5.33654 2.48395 9.36936 0.977308 -1.06045 0.649888
235 1 0.790442 5.11267 4.4895 1.14519 0.664484 -0.423346
236 1 7.35342 5.8241 6.35551 0.497443 -0.114135 0.535111
237 1 7.55074 3.46103 6.94008 -1.37443 0.0942392 0.392445
238 1 4.16694 1.79929 -0.00923257 1.28121 -0.652271 -0.82021
239 1 8.95528 4.07712 1.09975 -0.435522 -1.04448 0.872463
240 1 4.72103 8.98862 4.91826 -0.252461 -0.128295 0.56932
241 1 5.40482 5.93984 3.02052 0.156774 -0.590884 0.380755
242 1 7.98311 3.4442 2.93542 -0.621459 -0.181015 -0.308336
243 1 1.209 0.768605 2.20121 1.15504 -0.0417445 0.313961
244 1 7.97096 4.0109 7.87642 -0.641433 0.690943 -0.223839
245 1 7.18031 4.97639 2.85317 0.148998 -1.04642 -0.424912
246 1 2.41145 6.91746 9.21835 0.392263 -0.120315 1.43807
247 1 1.50046 2.02501 1.44454 0.591389 -0.250795 -0.44949
248 1 9.27247 8.87573 8.69986 -0.629391 -0.613546 2.51561
249 1 1.38951 6.96644 4.4914 -0.586405 -0.594436 1.15276
250 1 2.12121 8.80934 2.6504 0.15319 0.198613 -0.683436
251 1 2.13819 7.32328 7.31672 1.82739 -0.742625 -0.987324
252 1 3.63642 3.22998 3.56514 -0.561548 -1.12973 0.724182
253 1 0.868994 6.31003 6.17177 0.929501 -0.819796 -0.37883
254 1 5.37386 1.36353 4.11822 -1.35665 -0.231204 0.872528
255 1 8.85584 8.23797 0.334798 0.461785 -0.85878 0.516985
256 1 8.93535 7.79775 8.76152 -0.0673541 0.452174 -0.846716
257 1 4.74807 0.68955 4.7271 -0.530911 -0.422607 -0.98759
258 1 4.34054 1.51833 2.97584 0.0176416 0.612082 -0.895758
259 1 2.78763 5.66365 1.55774 -1.09962 0.781846 0.530467
260 1 4.91454 8.62173 7.82782 -0.194607 -0.848344 0.280111
261 1 4.98522 1.5609 8.74427 -0.692925 0.868523 0.320061
262 1 3.22172 4.31928 3.4537 -1.01872 -0.11181 0.906582
263 1 5.31854 4.04596 5.49385 -0.456495 0.510206 -0.674987
264 1 6.00291 2.75186 2.34341 0.207785 1.92702 -0.072742
265 1 7.32861 5.78451 3.63554 0.289169 0.188849 0.506021
266 1 8.59815 6.29059 2.32305 -0.579467 -0.178842 0.463823
267 1 3.5493 8.43468 0.101193 -0.131509 0.174828 -0.12333
268 1 5.88746 3.158 6.69078 -0.780046 -0.378956 0.663452
269 1 8.33245 6.11611 1.27593 -0.481672 0.173548 1.74447
270 1 7.92707 3.34038 5.92298 -0.374259 -0.209643 -0.0446074
271 1 2.92503 0.32554 3.39495 -0.321467 -0.897647 0.409887
272 1 6.30575 4.0573 5.7285 -0.012439 1.25397 0.382344
273 1 8.77148 6.17372 3.36651 0.569192 0.535273 -0.933706
274 1 6.43122 3.31476 0.704102 1.00084 0.82065 1.00994
275 1 2.75509 8.0879 7.70643 0.134663 -0.698965 -0.344718
276 1 5.54362 7.26413 -0.00752506 -0.211011 0.10658 -1.56128
277 1 6.11198 4.56641 4.76944 -1.56227 0.163646 0.78683
278 1 1.24088 4.88198 1.21567 -0.994837 0.319032 -2.19486
279 1 9.29574 7.27308 0.168981 -0.434217 -1.0968 -0.230763
280 1 5.63441 0.196171 7.8599 -0.372119 0.040863 0.432705
281 1 5.96016 6.85419 3.56125 -0.373703 -0.244543 0.166194
282 1 3.14148 6.63184 4.41173 1.13939 -0.0260942 -0.554905
283 1 9.02949 6.84015 6.24743 0.520702 -0.919503 -0.177707
284 1 3.71592 0.398691 8.62243 0.0405891 0.262654 0.992768
285 1 4.24914 4.59191 8.64283 -0.388154 0.494696 1.25123
286 1 2.5322 0.606671 6.9631 -1.02791 0.392177 -0.22171
287 1 8.67336 3.49085 2.01533 0.240193 0.960725 0.232882
288 1 3.88307 9.29309 1.91133 0.465183 -0.605665 -1.57079
289 1 6.43512 4.40023 2.42182 0.0630777 -0.50582 -0.384258
290 1 2.22583 5.1623 3.59921 -0.649274 0.292494 -0.122273
291 1 1.47039 0.627951 7.0777 0.57301 0.846151 0.148367
292 1 1.99501 5.18584 4.74134 -0.331918 -0.869489 -0.506933
293 1 3.40927 7.56688 4.69906 0.666361 1.56833 -0.827141
294 1 3.86979 6.41899 7.1347 0.199912 -0.111241 -0.0442372
295 1 3.63272 6.10095 5.15849 -0.227379 1.18208 0.719565
296 1 5.64147 3.42162 4.65076 0.118782 -0.281029 -0.864306
297 1 4.14655 3.60874 8.89674 2.07865 1.1027 -0.304586
298 1 7.99644 2.32308 0.536732 0.308965 0.721601 -1.06824
299 1 0.644633 7.82318 1.43762 -1.34429 -0.40993 0.0468679
300 1 6.20627 1.52338 1.07931 -0.385722 0.477388 0.171099
301 1 0.795435 2.14688 7.88309 0.790969 0.139728 0.0948617
302 1 6.55109 8.29955 6.12102 -0.465353 -1.06566 0.165761
303 1 4.47259 4.41999 6.94692 -0.771208 0.0717238 2.03715
304 1 6.48511 1.25465 0.166895 -1.11529 0.215338 -0.0124427
305 1 1.45777 4.59822 0.258876 0.63404 0.242614 0.787577
306 1 8.78369 0.177192 6.90843 -0.206826 0.30075 0.595542
307 1 4.59054 6.33487 1.72948 -0.513991 1.14802 -0.485825
308 1 6.21073 8.78309 3.90835 -0.695287 0.161369 0.0331554
309 1 3.60746 5.06732 4.92538 0.453536 0.00850232 0.256878
310 1 9.14639 2.44727 3.81779 0.824429 0.784283 1.66012
311 1 5.7069 2.26075 8.41951 0.675867 0.627311 0.0939856
312 1 3.84484 6.85657 2.41624 -0.131898 1.13772 0.315712
313 1 9.01005 7.66659 1.17476 0.130941 0.605337 -0.912688
314 1 5.58968 4.72811 8.10168 1.05919 -0.745727 1.35278
315 1 6.03681 5.81847 6.4652 -0.697943 -0.544817 0.847963
316 1 1.22123 8.30442 3.11398 0.938117 -0.280687 -0.158949
317 1 3.77397 2.78684 0.484112 1.77115 1.47668 0.415441
318 1 0.304089 2.6147 5.41398 -0.758672 0.981078 -0.376066
319 1 7.51022 8.26098 6.54278 0.52222 -0.249283 -0.212919
320 1 8.11082 2.44702 2.3794 -0.955452 0.172493 -0.0615347
321 1 4.58557 8.65164 6.00289 0.723114 -0.273098 0.825348
322 1 0.398127 0.484153 7.01363 -0.191848 0.421407 0.473921
323 1 3.26867 5.43475 3.38689 0.388663 0.810809 -0.0670287
324 1 5.45721 1.50953 0.323595 -0.218008 0.141865 0.0633931
325 1 4.94065 1.92597 4.98798 -0.472146 0.46499 -0.310994
326 1 7.69697 -0.0240356 7.21861 -0.809207 -1.25082 -0.377367
327 1 0.779062 7.01867 8.85574 0.288505 -0.20325 -1.35466
328 1 4.55048 5.22127 2.17115 -0.380313 1.05961 0.966071
329 1 1.89663 3.57442 4.34616 0.483789 -0.403796 -0.909129
330 1 3.31294 2.63212 4.36187 0.403623 -0.476751 -0.918839
331 1 4.50579 3.74269 6.07217 -0.0775247 -0.0645362 0.462316
332 1 1.53333 4.1438 7.12731 0.208511 -1.05865 0.51372
333 1 6.41511 6.41137 0.899467 1.48492 -0.134174 -0.62465
334 1 3.37772 0.12234 7.68415 -0.360473 -0.669779 -0.705581
335 1 3.7854 1.51421 0.921526 -0.917497 0.156622 0.357563
336 1 0.789154 0.433119 6.05136 0.322248 0.138621 -1.19357
337 1 8.66245 3.56048 0.0939594 -0.854173 -1.09823 -0.0283954
338 1 5.87528 1.91892 3.26875 -1.7632 1.03929 0.930277
339 1 8.17427 8.70918 8.92667 0.525916 -0.37114 0.374113
340 1 2.68538 4.89057 2.62217 0.568363 0.395316 -0.560915
341 1 1.50419 1.16881 0.294836 -0.0306758 1.39898 1.26311
342 1 3.80142 7.96221 8.44549 -1.23554 -0.302769 -0.691157
343 1 2.17429 3.17257 2.71105 0.188992 -0.137586 -1.03403
344 1 3.18692 0.93646 4.46019 0.00398221 0.091787 0.716145
345 1 7.09177 8.46012 4.3661 -0.605855 -0.470873 -0.663053
346 1 0.708869 5.74172 7.06559 -1.16385 -0.00465592 -0.92063
347 1 9.00633 4.16885 7.474 -0.504094 -0.657283 -0.369269
348 1 5.10105 2.99046 7.59242 0.770436 0.0116577 0.190357
349 1 4.00124 0.967084 1.93055 -0.305145 0.361982 1.29103
350 1 4.85862 3.48196 3.79816 -0.0119516 0.194602 -0.0380968
351 1 7.17534 9.08613 2.06214 0.788181 0.141543 -0.127537
352 1 5.16748 5.08577 9.03385 0.0812155 0.0365371 0.509127
353 1 1.31648 1.13844 4.66372 -0.823715 0.77208 -0.281731
354 1 2.52882 0.581813 8.15363 -0.495357 1.02814 -0.20657
355 1 8.80274 3.65596 6.54174 -0.494069 -0.833647 0.383347
356 1 0.566368 4.33504 0.705451 0.0445875 -0.287173 0.432669
357 1 5.49763 3.01373 1.01116 -0.162529 -0.237327 0.481856
358 1 1.14458 8.8595 8.57178 0.230873 0.0238327 -1.02859
359 1 3.33674 3.38787 1.3553 0.851284 -0.0383869 0.133129
360 1 5.87768 3.1285 5.64942 -0.584423 -0.889467 -1.18037
361 1 3.44624 1.77341 2.24183 0.339374 -0.607908 -0.991421
362 1 6.66401 3.2655 1.71187 -0.204125 1.21413 0.569988
363 1 8.37717 7.27894 1.8728 -0.284682 -0.97708 -0.9179
364 1 4.22649 1.1325 7.92981 0.786618 0.242355 0.439548
365 1 1.08304 8.92375 1.56599 0.984037 0.304215 1.02485
366 1 6.71846 7.93817 5.14773 0.991521 0.366041 -0.569259
367 1 7.89213 1.05421 4.68367 -0.65102 0.832906 -0.145579
368 1 2.34079 7.28535 1.53133 -0.224528 1.19631 0.310018
369 1 7.72206 2.50979 5.34492 -0.0235746 -0.166483 0.908639
370 1 4.83432 1.22398 1.2791 1.40636 0.969794 0.844002
371 1 8.24189 0.944657 2.66573 0.480153 0.417613 -0.986445
372 1 5.0654 9.38817 0.152832 -0.00204658 0.865789 0.169801
373 1 7.99358 0.929835 6.8861 0.483126 0.721512 -0.527662
374 1 6.96759 6.80036 3.89253 0.932227 -0.354315 0.923083
375 1 5.19852 5.90421 5.81183 -0.5158 0.145277 0.559902
376 1 2.47148 1.54239 7.73187 -0.225226 -0.125603 -0.400665
377 1 2.87193 5.18029 8.18236 0.271732 -0.987635 -0.101049
378 1 8.24677 0.0734407 2.04795 0.223244 0.216616 0.431149
379 1 8.91629 3.6422 5.55991 -0.955938 -0.226747 -0.587205
380 1 8.70691 7.20974 2.80474 0.237605 -1.2092 0.14446
381 1 1.6766 5.44107 6.87682 -0.448939 0.0894942 0.217719
382 1 6.66712 2.03424 1.91484 0.0961583 1.08592 0.571548
383 1 7.09861 2.60532 0.960655 -0.157748 -0.566891 0.023795
384 1 7.08964 8.34257 1.20798 1.13381 -0.564127 -0.0623916
385 1 5.07255 8.80297 1.91177 0.644786 1.28829 0.954149
386 1 0.432349 2.10817 0.976247 1.66354 -0.481898 0.211545
387 1 7.43722 1.67088 2.57619 0.495657 0.61209 -0.935142
388 1 4.87251 5.95981 8.36898 0.421319 -0.281542 0.295364
389 1 7.37737 4.2063 6.19239 -0.314989 0.175228 -1.52397
390 1 8.32381 4.51065 4.79796 0.495296 -0.235383 -0.840457
391 1 4.70381 0.916524 0.197927 0.39526 0.752193 -0.0505893
392 1 2.18494 0.87849 4.05806 -0.342603 1.32994 2.10137
393 1 4.52869 0.25546 7.63406 -0.171963 -0.358537 -0.588835
394 1 0.0207983 4.55554 6.11504 -0.313702 -0.657905 0.517763
395 1 8.12115 5.29315 8.847 0.17308 -1.07182 0.0856636
396 1 2.95804 1.80821 4.98995 -0.528058 0.310461 0.53491
397 1 6.98489 3.21913 5.18993 -1.14811 1.79903 0.303191
398 1 7.56343 6.91781 1.22316 -0.807411 -0.394288 0.0889995
399 1 1.95903 1.49316 2.222 -0.86331 1.24204 1.16549
400 1 6.77754 8.08982 2.1284 0.122588 -0.311577 -1.22732
401 1 3.4216 1.81698 5.92411 -0.029687 0.541277 0.436458
402 1 7.38108 0.310581 5.39217 -0.426748 -0.0320791 0.0411459
403 1 0.753173 3.02054 1.62439 -0.0949277 0.260557 0.638906
404 1 5.07332 7.05984 2.53786 0.0768019 0.791631 -0.62085
405 1 3.99896 1.52825 6.86925 -0.760342 -1.58098 -0.0868428
406 1 2.19835 4.26708 5.29412 -0.354441 -0.128595 0.517396
407 1 5.42061 8.32401 0.0543641 0.156968 1.04408 0.238954
408 1 4.72834 2.58403 8.52375 -0.316849 1.55507 0.825343
409 1 2.78885 1.29246 2.92917 0.767464 1.57571 -1.46939
410 1 0.39327 3.88256 6.8186 -0.319827 0.792946 0.635388
411 1 6.62977 8.94018 5.2682 -0.589191 0.289779 -1.72941
412 1 5.73174 0.423867 3.67039 0.167561 0.863754 0.727754
413 1 1.88353 7.59239 0.645598 0.648362 -0.357639 -0.813089
414 1 1.40836 7.3926 3.56399 -0.676451 0.571559 -0.887578
415 1 1.4264 3.85311 1.1096 1.5356 0.10171 -0.744013
416 1 0.0318378 8.65677 3.49095 -0.187195 0.702269 -1.38719
417 1 1.38057 7.91931 4.95811 0.354053 -0.894259 -0.275534
418 1 3.35917 0.471593 0.984946 0.709245 0.247106 -0.399568
419 1 7.56393 2.31788 3.34419 -1.03335 0.659839 1.12765
420 1 9.38901 1.79577 4.78005 0.317648 1.00941 -0.0392154
421 1 7.80976 8.16787 2.02087 -0.720448 0.170541 -0.0274556
422 1 3.05017 2.74897 5.66166 0.338053 -0.411908 0.180035
423 1 8.05481 7.73272 9.31998 0.71729 -0.159804 -0.761718
424 1 7.54354 8.51132 5.44114 -0.409176 -0.590227 0.359324
425 1 1.55257 2.03795 5.29768 -0.471465 -1.09672 -1.65267
426 1 9.05015 0.791136 8.69895 -0.623144 -0.603449 0.609996
427 1 6.55777 5.74055 5.56089 0.891296 0.647114 -0.715528
428 1 3.39852 2.81042 7.00993 0.209577 -0.0348518 0.533543
429 1 4.67283 3.22353 0.424025 -1.21511 -0.17164 0.706282
430 1 2.5126 8.77136 6.12255 -0.404204 -1.139 1.40173
431 1 9.19679 7.38548 7.61267 0.676555 -0.929707 0.3096
432 1 6.29593 0.749176 7.07081 0.12844 0.00493061 0.112725
433 1 3.70986 2.11996 7.68796 0.223557 0.348612 0.845535
434 1 4.7868 4.33821 2.61731 -0.0169873 0.59963 -0.467202
435 1 2.04838 0.538254 2.80248 -0.874589 0.176925 0.421354
436 1 2.05101 3.45203 9.17385 -1.15022 -1.32222 0.411378
437 1 8.14414 4.99584 7.85095 0.113077 0.332951 -0.0870044
438 1 1.7238 8.99381 0.0326796 -0.728389 0.0860233 0.320656
439 1 5.21969 6.27318 4.1626 -0.352079 0.859316 -0.0756496
440 1 0.592732 4.48025 2.73997 0.359979 -0.0208447 -0.471233
441 1 9.14117 0.773707 2.31545 -0.818411 0.32625 -0.54209
442 1 4.85953 6.83731 0.819516 0.338391 0.410642 -0.231805
443 1 3.91221 6.82726 8.19901 0.788153 -1.39942 -0.355322
444 1 8.05144 6.58186 4.16906 0.0529449 -0.581519 0.938755
445 1 4.81991 0.487914 8.64225 2.04168 0.410563 -0.549757
446 1 7.4316 5.96095 2.34303 0.0393586 0.243434 0.82033
447 1 0.913588 7.41841 0.453945 -0.0430533 0.128975 0.00679653
448 1 4.49415 7.69322 7.81475 1.01301 0.0704664 -1.1659
449 1 2.31842 1.44965 8.71125 -0.168118 -0.0721154 0.733354
450 1 2.05366 9.16311 7.41326 0.472716 0.49766 0.747667
451 1 6.86725 0.776121 8.67526 -0.259089 -0.0360351 -0.593121
452 1 5.59682 6.86259 8.41393 0.173776 -0.454194 -0.390684
453 1 5.35741 7.9609 8.5051 0.033836 -0.340186 0.156204
454 1 5.64142 6.51253 5.14531 1.21798 -0.209115 -0.23909
455 1 4.18297 5.43018 6.95224 0.172963 -1.18945 0.418036
456 1 0.998257 6.38571 2.25252 1.45437 -0.628403 0.0374727
457 1 4.86464 4.25174 0.104294 -0.414343 -1.02971 -1.24739
458 1 8.60863 7.47342 4.43359 0.144466 -0.0315838 0.347716
459 1 2.8187 7.11819 2.4285 -0.950185 0.406934 -0.483897
460 1 8.36563 2.60242 9.03991 -0.456934 -0.0462301 0.208924
461 1 9.02818 4.89631 3.25229 1.32153 1.32688 -0.60875
462 1 0.92837 6.4886 3.39353 -0.629247 -0.555767 -0.634497
463 1 2.1027 0.472159 9.12629 1.31563 -1.5254 0.692949
464 1 9.13259 6.25557 0.627639 -0.384677 0.774583 0.91381
465 1 1.53909 8.13138 2.10964 0.239654 0.969209 -0.395397
466 1 8.01858 7.85492 1.00428 -0.0217257 -0.725379 -0.28261
467 1 5.3657 1.17117 2.88128 -0.189856 0.456014 -0.318436
468 1 6.56796 8.98435 2.90941 1.32054 1.02636 -1.32094
469 1 2.50922 1.96504 1.08243 -0.261595 -0.251102 0.755343
470 1 7.00482 5.42487 4.75156 -0.127301 -0.115 -0.738096
471 1 2.54255 8.45496 0.261371 0.15589 0.41216 -0.285867
472 1 2.30763 6.98176 6.33753 0.187748 -0.374362 -0.118193
473 1 8.97455 1.20345 6.87616 -0.271037 -0.22941 -0.0545661
474 1 6.70044 1.82001 8.59987 -0.551306 -0.47244 0.447707
475 1 4.39188 8.89576 8.7456 -0.790534 -0.6199 0.0992019
476 1 2.88195 5.57112 4.37746 0.0674801 0.265134 1.14298
477 1 8.29064 6.93146 7.97767 0.524339 0.742519 -1.50242
478 1 5.66884 0.0467931 4.72602 0.281604 -0.753213 -1.71772
479 1 7.34648 0.775662 2.03125 0.836366 -0.848241 -0.934479
480 1 5.97968 6.81307 6.30346 -1.53615 0.378288 -1.15479
481 1 2.60371 4.46788 4.34647 0.171614 -0.601455 0.741848
482 1 4.59688 6.31493 5.03484 -0.212055 -0.944294 0.547498
483 1 1.10307 5.1356 3.37936 1.0307 0.362456 0.126378
484 1 0.19791 3.79795 9.04274 -0.628768 -0.280349 -0.535546
485 1 6.74882 5.76072 7.20194 -0.323567 -1.37822 0.679069
486 1 1.68643 4.60388 2.71985 -0.588063 -0.881881 0.427813
487 1 0.544659 6.20186 4.46001 -0.586504 -0.189989 -0.16499
488 1 6.71275 2.27466 5.5955 0.507774 0.807185 -0.336967
489 1 6.41023 8.40425 0.430254 0.240316 0.780504 1.56102
490 1 5.41923 5.77544 2.05266 -1.39789 0.777382 -0.0145121
491 1 4.56644 5.27731 3.16408 0.0780306 -0.0549105 -0.369923
492 1 1.58161 8.85488 5.48885 -0.610826 0.748075 1.17178
493 1 8.0079 4.61933 0.49882 -0.215736 -0.720203 0.611776
494 1 4.15818 4.11047 3.28729 0.259685 -0.616416 0.575434
495 1 3.06286 8.25855 1.12988 -0.492468 -0.0473027 0.507094
496 1 2.58313 9.4122 5.33356 0.0276766 0.588412 1.71821
497 1 6.55855 7.58872 6.88162 0.0862206 -0.605881 -0.631636
498 1 2.57566 1.15482 0.361528 -0.427238 0.374256 1.39264
499 1 3.57329 2.85706 2.3254 -0.838467 0.162341 -0.636079
500 1 6.57762 6.4808 8.15191 -0.476393 -0.474919 0.247516
501 1 5.72274 4.16947 3.87627 -0.331777 0.201937 -0.418422
502 1 7.74174 3.93135 4.01044 0.62289 0.374456 -0.602267
503 1 3.30189 1.08275 7.45602 -1.54409 -0.169202 -0.087412
504 1 3.02962 0.47655 2.40016 -0.904737 -0.346521 0.446582
505 1 7.63088 3.3403 0.454417 0.51467 0.375516 0.334158
506 1 5.7349 5.80158 7.53682 -0.857035 -0.42774 0.520705
507 1 5.43973 7.62557 7.50695 -0.737104 -2.33675 0.661989
508 1 0.78284 8.13449 4.02254 0.596344 0.462848 0.529607
509 1 3.41762 2.39047 1.39711 0.312299 0.745499 -0.474676
510 1 5.63393 4.76627 0.674557 0.527051 -0.246865 1.61247
511 1 6.17643 1.7298 7.48519 0.508681 -1.96896 0.477868
512 1 2.01106 6.296 1.87408 -0.239578 0.817732 -0.209172
513 1 4.78291 7.56187 1.6011 0.80587 1.8517 0.830753
514 1 8.16342 5.47992 2.8716 -0.630719 0.134063 -0.124316