ITEM: TIMESTEP
170
ITEM: NUMBER OF ATOMS
1000
ITEM: BOX BOUNDS pp pp pp
0.0000000000000000e+00 9.4000000000000004e+00
0.0000000000000000e+00 9.4000000000000004e+00
0.0000000000000000e+00 9.4000000000000004e+00
ITEM: ATOMS id type x y z vx vy vz
1 1 4.70189 0.141721 1.19149 -0.457172 1.13976 -0.214392
2 1 7.93405 2.85685 7.82928 -0.170455 -0.491207 0.552391
3 1 0.417732 3.27989 3.70401 -0.218753 -1.10602 -1.01435
4 1 0.793982 8.27106 7.06606 -0.137558 0.000295576 -1.17436
5 1 5.6197 2.20219 5.88124 0.218721 0.423474 -0.375172
6 1 7.33226 7.43928 5.96783 1.84351 0.269839 1.30933
7 1 1.14167 8.37356 0.773973 0.0953348 -0.379752 1.22865
8 1 2.17361 2.20316 5.99946 -0.610476 -0.198569 0.0911857
9 1 1.17104 2.85123 4.74724 2.06002 -0.956762 0.0656077
10 1 2.96147 9.07426 1.67316 1.4099 -0.806902 -0.105728
11 1 8.3812 6.95425 0.693185 -0.2011 -1.26345 1.3757
12 1 6.99865 2.88375 2.62242 -0.77454 -0.195976 0.573749
13 1 8.27741 1.72099 6.31132 -1.16819 -0.897558 0.590281
14 1 3.6417 6.15227 1.67255 0.459882 -0.0375365 -0.876448
15 1 7.72415 3.33035 1.51357 -0.247455 0.458864 1.14383
16 1 1.298 3.06539 8.4448 -0.48328 1.01254 0.00535188
17 1 8.24791 4.47674 6.88062 -0.810809 -0.899041 -0.365854
18 1 0.256848 3.36704 2.46178 -1.11905 0.475619 -0.460185
19 1 6.19591 2.98126 9.02071 0.88811 -0.20828 0.351816
20 1 4.2857 3.31434 7.01405 -0.593365 -1.61183 -0.386938
21 1 1.82914 5.12231 5.76046 0.997286 0.48477 0.590879
22 1 2.88635 3.57504 4.92049 0.0269625 -0.718051 -0.645032
23 1 5.30543 3.44567 8.89485 -0.852615 -0.0423799 -0.366169
24 1 2.30625 4.01536 8.18418 -1.01709 0.253353 -0.273832
25 1 6.19432 2.76609 7.58238 0.0933086 0.839755 -0.0835258
26 1 2.10457 3.08455 5.40169 -0.416149 -0.556735 1.24497
27 1 8.43646 0.935519 7.73288 -0.447133 -1.44663 -0.0900957
28 1 4.41263 6.3661 3.38607 -0.837182 0.778037 0.279531
29 1 3.06041 9.39446 0.00786248 0.428957 0.515878 0.105273
30 1 7.36486 2.98804 4.23872 0.168637 0.0971921 -1.39108
31 1 8.58521 3.04914 1.09112 0.676085 0.7322 0.696591
32 1 4.16855 0.381507 5.79432 1.65038 -0.911905 -0.928884
33 1 1.86302 7.24906 8.39927 -0.165226 -0.155354 0.520655
34 1 3.49763 7.26615 1.54967 0.677528 -0.127592 0.0678861
35 1 9.20287 0.634354 5.98798 0.315201 -0.786376 0.439319
36 1 6.49112 6.37834 1.9269 -1.19727 -0.609411 0.649537
37 1 8.50421 1.5875 9.33259 0.135836 0.0561055 0.349882
38 1 1.20913 1.61867 3.00831 0.602017 0.247277 0.15143
39 1 0.309594 0.924809 4.26246 0.318029 0.85007 0.391869
40 1 2.37354 4.0371 0.485778 -0.365293 -0.423903 0.301929
41 1 6.04779 9.28296 6.33186 0.110157 -0.801782 1.03465
42 1 1.38408 2.01443 8.79831 -0.899054 -0.373498 0.507146
43 1 1.97332 2.97906 1.56296 1.71156 0.45629 -1.24955
44 1 7.25977 1.36585 5.53219 0.159616 -0.153719 -0.0300239
45 1 6.3598 2.31461 6.6378 -0.742194 -0.431613 -0.519552
46 1 7.79064 6.63785 3.11571 -0.626693 0.311231 0.754911
47 1 6.12627 5.56686 0.298601 -0.425215 -0.0773315 0.134729
48 1 7.77265 7.52544 3.95001 0.0768276 0.270924 0.175928
49 1 3.55664 4.61848 6.69925 0.241837 0.633064 0.300642
50 1 8.6378 7.86851 3.46745 0.693228 0.416517 0.743151
51 1 6.24925 7.22716 2.55795 -0.596409 -0.600581 0.811676
52 1 1.06501 3.5854 0.0494998 -0.192102 -0.633647 -0.473487
53 1 5.422 2.86577 3.16005 -0.854073 -1.25281 -1.01723
54 1 0.0668234 6.22958 5.42952 -1.08857 -0.0975212 -0.487075
55 1 8.95254 5.3201 5.35989 -0.825758 -0.295897 -2.1145
56 1 0.089547 4.52151 4.93907 0.813193 -0.267658 0.291018
57 1 0.196787 8.9243 6.34497 0.121614 -0.983535 -0.653809
58 1 5.1138 3.99008 1.27987 -1.15325 0.892608 0.811765
59 1 0.483627 7.37352 4.80245 0.82564 0.126494 -0.312542
60 1 0.426505 5.34743 0.50442 -1.6714 -0.0672637 1.93616
61 1 5.4715 9.01135 8.70315 0.62129 0.090435 0.361161
62 1 0.424299 0.309352 1.61741 0.417758 -1.25159 -1.09022
63 1 7.31046 7.19997 7.68926 0.233807 -1.4566 -0.809914
64 1 3.48742 5.25903 8.99974 -0.111757 -0.319809 0.370773
65 1 2.40353 2.50988 8.83124 -0.944686 0.213992 1.04079
66 1 6.22747 4.77179 9.08451 1.20656 -1.0204 0.630672
67 1 6.29984 5.47 2.45993 -1.72682 -0.02825 0.339224
68 1 4.1872 5.00749 0.209242 -1.67376 0.30886 0.572775
69 1 2.56031 2.95522 0.609568 -0.406455 -0.816633 -0.282649
70 1 0.231081 1.55641 3.41445 -1.69516 -0.834068 0.65651
71 1 7.34092 5.89824 1.40767 0.716789 -0.373565 1.78733
72 1 7.08881 4.92068 1.70807 -0.48077 1.2531 -0.208472
73 1 2.0808 8.51 1.29867 -0.208778 -0.576322 0.767783
74 1 4.80794 5.12621 7.80124 -0.668431 0.0680707 0.939472
75 1 8.26534 9.33158 5.00437 -0.63573 -0.186111 0.049137
76 1 6.83091 8.07101 3.24549 0.506077 -1.54326 0.775167
77 1 4.81897 3.94834 7.96051 0.829773 -1.11182 -0.0833929
78 1 2.47661 4.68406 9.08392 0.581261 0.183509 -0.0545446
79 1 7.90305 7.66992 2.76491 0.762067 -0.469364 -0.908034
80 1 0.162909 6.40592 2.70838 -0.0850487 -0.198305 -0.584069
81 1 5.88618 0.291084 2.57598 0.913456 0.824651 0.185308
82 1 9.21111 3.14911 7.40938 -1.03583 -0.412427 -0.987163
83 1 3.47823 8.64852 4.26946 -0.0840201 0.172086 1.33449
84 1 0.720489 4.82005 7.37585 0.72439 0.631408 -0.392843
85 1 2.18656 2.22539 3.11454 -0.994481 -0.750865 -1.92595
86 1 3.31925 4.29688 8.61791 0.0165224 -0.662509 0.503984
87 1 9.10305 4.48213 2.18527 -0.291099 -0.633945 0.145925
88 1 0.67603 1.71783 2.10319 -0.324281 0.848093 -0.527671
89 1 4.43279 2.06543 1.81013 0.808157 -0.293632 0.0492315
90 1 7.28339 7.02245 2.27055 -0.911485 0.493867 0.437458
91 1 4.34317 2.45823 3.4803 -0.268601 -1.01372 0.238855
92 1 0.635523 1.23329 8.53176 -0.0815808 0.0189047 0.703398
93 1 3.79393 5.86528 2.64074 0.146428 0.548313 1.46267
94 1 4.83535 8.49003 0.974589 -0.950476 0.349698 0.249559
95 1 6.37082 6.1263 4.35132 -0.151941 -0.298645 1.14651
96 1 3.95841 8.54745 7.48631 -0.160726 -0.882552 0.843903
97 1 5.64631 4.87166 2.93455 0.408617 1.41496 -0.211105
98 1 8.4079 8.61619 2.79525 1.32675 0.446995 0.837334
99 1 1.07117 9.30387 2.768 -0.0518939 0.591831 0.00618036
100 1 6.65664 0.095945 7.83769 -0.611363 -1.05961 -0.848275
101 1 8.83366 5.20183 0.937947 0.209438 -1.46071 -0.316281
102 1 7.62804 6.34377 8.59141 -0.442285 0.656103 0.313736
103 1 4.88989 0.507485 2.19433 0.927916 0.406452 0.42575
104 1 8.73148 0.104891 1.24283 -0.463954 1.36723 1.02107
105 1 7.45567 8.93322 8.20737 0.982688 -1.64827 1.25158
106 1 4.03143 3.07526 7.9423 -1.13469 -0.612901 -0.952593
107 1 1.37301 7.06929 1.52299 0.783021 -0.303391 1.06489
108 1 9.11152 5.50963 9.08239 0.231812 -0.741862 -0.685604
109 1 5.43809 1.67246 6.6905 0.629783 0.734002 -0.195285
110 1 2.79721 7.87646 6.64498 -0.308121 0.57328 0.474928
111 1 2.3464 0.120975 0.827161 0.0158498 0.124582 -0.960168
112 1 1.32902 6.00067 5.18124 0.413957 -0.700589 0.56509
113 1 0.0643931 9.04543 7.44162 -0.969458 -0.353738 -1.08844
114 1 2.24648 6.29087 4.64228 1.38022 0.135465 -1.26212
115 1 5.92636 8.38906 7.0134 1.02509 0.888025 1.06305
116 1 2.12824 7.76229 2.99105 -0.881049 0.956867 -0.691095
117 1 7.29137 8.37193 9.10195 0.20337 1.47304 -0.14433
118 1 0.328537 0.188453 8.27315 0.603046 0.32349 0.794759
119 1 7.57459 0.197713 2.95584 -0.348901 -0.522295 0.136776
120 1 7.4702 6.83628 0.111625 -0.474294 -1.10381 -0.241181
121 1 5.91807 5.78534 8.66976 0.761187 -0.433853 0.66738
122 1 0.149146 8.81186 1.0046 0.280652 0.799809 1.12397
123 1 1.53492 2.58193 6.76175 -1.39455 0.145578 -0.440648
124 1 3.44895 6.54444 3.33159 -0.123137 0.417966 0.443291
125 1 0.732349 2.1803 4.2251 -1.00125 -0.0712471 1.06592
126 1 0.430202 6.9101 6.85286 -1.16146 0.170623 -1.8047
127 1 1.79443 0.141603 4.70084 -0.361713 1.43407 -0.702278
128 1 4.86692 2.84238 5.57449 1.47354 1.57901 0.254705
129 1 4.63533 4.91881 1.21448 -0.159998 -2.29733 -0.216736
130 1 8.15723 0.773824 5.76672 -0.676486 0.302835 -0.823759
131 1 8.92231 0.779553 4.86647 0.986617 -0.328042 -0.0184456
132 1 6.71285 3.6741 4.0963 -0.470914 0.269793 0.282443
133 1 3.72282 4.01224 4.3812 0.38575 0.660118 -0.908729
134 1 6.26886 2.35761 0.457588 -0.219094 0.187278 0.148054
135 1 8.39672 1.70463 5.21482 0.131457 -0.851128 0.0844268
136 1 3.87211 5.88675 4.25033 0.713261 0.0985256 0.701798
137 1 2.81154 2.73846 7.76451 0.0820671 0.971217 -1.18757
138 1 1.49544 6.95906 5.57159 -0.150024 -0.820424 -1.01927
139 1 0.785099 0.272972 4.91089 -0.598771 -0.0876735 0.0012053
140 1 1.20877 3.85594 3.35165 0.319597 -0.883788 -0.0801682
141 1 2.43019 3.06263 6.36967 0.0968957 -0.677476 -0.341244
142 1 3.45409 3.6406 6.31036 -0.00744715 -0.467601 0.324999
143 1 3.0955 6.22668 8.69966 -0.394928 0.392049 -0.636916
144 1 8.78708 8.53897 1.75257 0.70709 0.229106 -0.253635
145 1 0.456965 6.52679 7.82931 -1.32462 -0.707477 -0.324542
146 1 5.73459 9.01047 1.06959 0.445213 -0.207657 1.25957
147 1 1.31178 7.42737 6.57918 -0.480198 -0.827606 1.20581
148 1 9.03862 4.59212 8.43938 0.240028 0.226854 1.51086
149 1 1.93862 6.70761 2.97231 0.246697 0.945791 0.61524
150 1 1.00331 7.41482 7.70289 -0.123844 0.327903 -0.0150509
151 1 3.85875 8.35252 5.27174 -0.494128 -0.245402 0.543981
152 1 4.52133 9.00788 2.79522 -0.279541 0.674541 -0.421648
153 1 8.92824 2.66253 2.9542 0.654919 -0.335552 0.231321
154 1 6.07767 6.65564 7.26838 -0.0858105 -1.6355 -0.402884
155 1 5.29615 1.14041 5.6813 -0.819467 0.194792 1.58997
156 1 3.99814 0.511757 2.81254 -1.53688 0.963792 -0.682671
157 1 8.59611 9.36543 8.04209 0.154647 -0.706344 0.0464891
158 1 0.600524 8.54064 4.9832 0.0456625 1.32442 -0.359557
159 1 6.25175 7.7452 4.11402 0.0922537 0.606039 -0.0885808
160 1 9.00014 1.29013 0.825064 0.283791 0.0765539 0.154278
161 1 2.38401 5.09451 0.711799 -0.564879 0.974872 0.473647
162 1 7.20267 4.45855 8.42833 -0.0235848 -0.0993043 0.714921
163 1 6.51224 5.21936 8.10527 0.338856 -1.1681 -0.331093
164 1 1.87352 5.61458 2.76725 0.606634 -0.130935 -0.409148
165 1 3.3188 1.40193 8.52818 -0.105784 -0.245122 0.723712
166 1 8.21526 5.2992 3.98661 0.783493 0.420368 1.15167
167 1 0.567321 8.94246 0.168015 -0.511083 0.268279 -0.862865
168 1 7.14413 5.12965 0.646765 -0.815893 -0.818 -1.16915
169 1 0.18541 5.35968 8.02595 -1.3966 0.631244 1.45655
170 1 2.27935 7.23081 3.9287 0.209791 0.831832 -0.558414
171 1 1.06167 5.28645 2.17236 0.0513135 0.23276 0.586127
172 1 6.50155 6.44245 9.17877 0.409117 0.552991 -0.0877057
173 1 6.20355 8.8509 1.99814 1.2328 -0.602542 0.0270057
174 1 2.07456 3.39496 7.33716 -1.8498 -0.498447 0.546774
175 1 4.02065 0.140822 0.231729 -0.327002 0.593065 0.638761
176 1 3.38483 7.60085 3.64614 -0.608051 -0.351208 0.440661
177 1 0.999398 0.508244 9.18355 -0.339162 -0.489445 -0.119117
178 1 4.18564 6.3443 6.17684 0.94716 -0.0112333 -0.40544
179 1 7.00728 4.09522 0.0653864 -1.17899 -0.193779 0.83335
180 1 4.50737 7.20289 6.7672 0.28352 0.271298 0.253368
181 1 7.9955 5.65059 0.455638 0.745852 -1.19445 0.572024
182 1 5.64592 7.98632 1.9859 -0.327413 0.276312 0.139954
183 1 4.67313 7.01207 8.7031 -0.38208 -1.07168 0.0432621
184 1 8.02614 6.72717 6.79606 -1.03161 -0.409574 -1.16799
185 1 8.10399 2.12308 4.29415 -0.0355771 0.577566 0.970869
186 1 7.64514 7.20562 4.97328 0.883095 0.104305 0.361167
187 1 8.14596 4.42864 1.59006 0.287377 -0.194947 0.765853
188 1 9.06799 6.81146 8.53284 0.659007 -1.47578 0.135408
189 1 8.02199 3.53553 4.86592 -1.52265 0.569715 -0.162563
190 1 9.04703 3.88569 3.13483 0.393891 0.266663 -0.2067
191 1 6.95774 2.67268 8.31129 1.12081 -0.211099 -1.29294
192 1 8.24592 5.57949 6.95483 -0.252729 -0.86695 -1.00411
193 1 4.00856 7.11854 5.37588 -1.08356 -0.0426613 0.641849
194 1 5.23709 1.10714 7.53598 0.0907844 0.21759 -0.178622
195 1 0.40266 8.29881 8.10188 0.176449 0.381749 -0.0775863
196 1 5.62407 6.82143 1.60521 -0.300652 0.259757 -0.0629318
197 1 3.88295 3.43173 5.25036 0.563955 0.94557 -0.132447
198 1 1.02399 4.74665 6.32659 0.249367 -0.559711 -0.24752
199 1 8.37721 5.95809 6.0671 0.0393664 -0.745158 0.0918471
200 1 4.81938 7.96912 5.19647 -0.132202 -1.00463 0.436045
201 1 0.243858 3.25021 0.649545 0.0263393 1.12504 0.0480931
202 1 9.08333 3.70928 4.40345 0.38465 0.093746 1.32843
203 1 9.31258 5.74152 6.32384 -1.07086 -1.21836 -0.0368631
204 1 7.08984 1.94391 4.49526 -0.0579239 -0.985551 -1.04738
205 1 1.36855 9.06448 6.54489 0.640262 -0.102644 0.595996
206 1 4.71711 9.10044 3.83007 0.588909 -0.35774 0.50322
207 1 7.24668 4.71283 7.34112 -0.275268 -1.27553 -0.10234
208 1 1.50434 3.84638 6.07492 0.873365 -1.01072 -0.0155034
209 1 6.58748 7.3187 1.47261 -0.0354451 0.534481 0.239295
210 1 1.44821 5.3395 8.8422 -0.202371 0.440479 0.100921
211 1 3.95163 2.35354 5.12154 0.369343 0.325164 0.303114
212 1 4.07484 3.96302 1.87936 -0.789133 -0.012517 -0.135481
213 1 4.02424 2.77394 6.12316 -0.252859 -1.29372 -0.511736
214 1 0.673857 6.36221 0.234291 0.0743918 -0.996174 0.400783
215 1 7.18753 7.37236 8.70734 -0.180138 0.137753 0.438586
216 1 3.62986 2.46839 8.77538 -0.510383 0.642475 -1.4594
217 1 5.73342 1.03033 1.86566 -0.444485 -0.0606414 0.241434
218 1 0.236039 2.95415 8.39376 -1.26774 -0.120504 0.312302
219 1 4.68257 2.27235 0.794033 -0.358743 0.356383 0.661585
220 1 8.65275 3.44266 8.29307 -1.0989 -1.52519 -0.407615
221 1 6.55898 2.68921 3.50985 0.286013 0.92098 1.12358
222 1 5.18396 5.18714 6.83991 0.410783 -0.439324 0.475875
223 1 8.59301 5.29277 1.95879 0.125765 0.941659 0.367005
224 1 5.69814 7.67573 0.906988 -0.208804 -0.247849 -0.338795
225 1 2.73063 1.84756 3.95467 0.354193 -0.377553 -0.533431
226 1 8.37233 7.71577 6.24031 0.259678 -0.342466 0.108223
227 1 3.10033 3.90015 2.47087 -0.678703 -0.158647 -0.187881
228 1 8.80994 8.41222 7.84912 0.50166 0.840701 0.499558
229 1 3.10163 7.43667 0.5246 1.38561 -0.23537 -0.103909
230 1 3.46539 0.659064 6.57629 -0.271197 1.12849 0.662681
231 1 3.5588 7.43519 7.41465 -1.22199 0.082439 -1.4127
232 1 1.70139 8.2843 7.94184 -0.179042 -0.351529 1.70238
233 1 7.95664 7.89708 8.28961 0.0110929 -0.0556815 -0.567525
234 1 5.32268 2.52978 9.32295 0.596465 0.492872 -0.0447643
235 1 0.897859 5.21235 4.54407 -0.855955 -0.788037 1.17712
236 1 7.4394 5.7965 6.41527 0.993573 -1.11006 -0.0438119
237 1 7.61973 3.49734 6.96519 1.3815 -0.0649729 -0.714643
238 1 4.20454 1.79444 9.38538 -0.456172 -0.147369 0.306444
239 1 9.05725 4.13006 1.19263 0.805193 0.467247 0.470898
240 1 4.66456 9.02774 5.0085 0.0317238 -0.787662 -0.105308
241 1 5.43505 6.01075 3.15705 0.0727598 1.33431 0.755698
242 1 8.09646 3.37126 2.92927 -0.708365 -0.26204 0.19375
243 1 1.18869 0.764183 2.18896 -0.700126 0.381431 -0.834942
244 1 7.90313 4.00858 7.79038 0.248574 -0.276727 -0.436495
245 1 7.23571 5.00893 2.81462 -0.412027 -0.165519 0.37598
246 1 2.39507 7.00362 9.21262 0.376132 1.24966 -1.60201
247 1 1.48154 1.99929 1.35337 -0.577599 -0.346165 -0.0588746
248 1 9.36438 8.79451 8.8147 1.48291 0.431506 -0.672195
249 1 1.37947 6.81665 4.56772 0.83601 -0.387341 -0.425637
250 1 2.29457 8.82859 2.73053 1.13568 0.888145 0.966221
251 1 2.19372 7.29328 7.3723 -1.52391 0.0147542 0.558012
252 1 3.55616 3.29506 3.53499 -0.802044 0.752303 -0.503605
253 1 0.929733 6.42127 6.13259 -0.317333 -0.834436 0.586257
254 1 5.36043 1.33488 4.19931 0.485442 0.563632 -0.785734
255 1 8.93123 8.24502 0.243886 0.978733 0.705143 0.224347
256 1 8.9138 7.8324 8.70638 -0.454681 -0.364756 -0.567545
257 1 4.8151 0.523719 4.63749 0.47558 0.110447 -0.0753338
258 1 4.27769 1.60867 2.8675 -0.118967 -0.46135 -0.370369
259 1 2.68682 5.63992 1.53669 0.671894 -0.262376 -1.18054
260 1 5.07254 8.59724 7.82683 2.02137 -0.936656 -1.10006
261 1 5.03405 1.61933 8.70961 -0.445116 0.41552 -0.0418434
262 1 3.13686 4.44363 3.43615 0.279581 1.1152 -0.196199
263 1 5.32966 3.95232 5.42923 -0.15587 0.653378 -1.66886
264 1 5.994 2.72209 2.3817 -1.30362 -0.587561 0.826949
265 1 7.27992 5.83188 3.68904 -0.343726 -0.0409708 0.228042
266 1 8.47894 6.24298 2.35335 -1.16376 -0.918675 0.0928889
267 1 3.49344 8.36102 0.0666448 -0.676567 -1.15946 -0.744644
268 1 5.88267 3.21177 6.64437 0.267306 1.48478 -0.504176
269 1 8.34511 6.07392 1.29367 0.187536 0.328437 -0.850137
270 1 7.96153 3.30765 5.98096 1.08578 -1.02251 -0.0980245
271 1 2.79065 0.294949 3.41051 0.226263 -0.0700355 0.272931
272 1 6.34902 4.17319 5.81436 -0.5222 0.0669194 -0.303451
273 1 8.70041 6.14605 3.45372 -0.798724 -0.358864 1.35866
274 1 6.58748 3.3986 0.677664 -0.0609511 0.0732874 -1.05171
275 1 2.74914 8.10307 7.73383 0.37359 -0.0936176 -0.794005
276 1 5.53719 7.26104 9.27475 0.0319117 -0.874447 -0.665093
277 1 5.89422 4.52495 4.81931 -0.193254 0.630808 -0.806949
278 1 1.21897 4.92511 1.13586 0.632514 -1.31751 -0.380369
279 1 9.33056 7.09312 0.143642 0.516533 -0.599947 -0.0429341
280 1 5.59169 0.18158 7.77538 0.45489 -0.710681 -0.451154
281 1 5.95025 6.81865 3.57241 1.13554 0.0220445 -1.53405
282 1 3.18798 6.7242 4.35634 -0.663305 0.378829 -0.0613547
283 1 8.97819 6.80683 6.24676 -0.309415 0.615042 -0.596578
284 1 3.72817 0.37348 8.58443 0.22486 0.128403 0.526386
285 1 4.42725 4.60642 8.5691 0.456647 0.186507 -0.0742626
286 1 2.45004 0.610489 7.02056 0.510561 0.39833 0.954383
287 1 8.59826 3.49011 2.05785 0.738026 0.377462 -0.718425
288 1 4.02503 9.34877 1.9484 -0.0846091 -0.965642 0.939965
289 1 6.32956 4.29372 2.35451 -0.751303 0.332837 -0.378973
290 1 2.2911 5.0895 3.59557 1.06274 -1.15057 0.74073
291 1 1.34221 0.619236 7.06296 -1.03828 -0.469377 -0.455239
292 1 1.94397 5.19347 4.79331 -0.00841484 0.742385 -0.447031
293 1 3.37547 7.62058 4.68346 -0.19966 -0.0930395 0.425123
294 1 3.84104 6.45627 7.18466 -0.309471 -0.25137 -0.571352
295 1 3.70277 6.06524 5.26525 0.450232 0.244257 0.0374048
296 1 5.39972 3.4288 4.56605 -1.23504 -0.662059 0.491423
297 1 4.17193 3.52776 8.83389 -1.12201 -1.04345 0.296459
298 1 7.9987 2.37042 0.534504 0.0558051 0.233626 -0.32551
299 1 0.701601 7.95489 1.55157 1.23942 1.28213 1.73713
300 1 6.21894 1.6326 1.14204 -0.373819 -0.445752 0.187068
301 1 0.725395 2.18473 7.94886 -1.95982 -0.01172 0.967609
302 1 6.51665 8.31336 5.98289 -0.13139 0.407179 -1.31893
303 1 4.4882 4.34463 7.06641 0.884683 0.399592 0.0221382
304 1 6.47363 1.25031 0.103082 1.10824 0.589206 0.146465
305 1 1.52994 4.50533 0.17102 -0.563107 0.239696 -0.668789
306 1 8.69464 0.207764 7.02501 0.0329601 0.801317 0.359177
307 1 4.64457 6.53973 1.78433 0.625555 -0.168936 -0.621138
308 1 6.22171 8.90989 3.75282 0.983064 0.78603 -0.178688
309 1 3.62271 5.06691 4.99939 0.332899 -0.195127 0.743752
310 1 9.18981 2.41707 3.89077 -0.262079 -0.778995 -1.41839
311 1 5.74505 2.2671 8.28522 -0.899715 -0.510554 -0.0863543
312 1 3.99098 6.89239 2.42941 0.412229 0.578612 1.83134
313 1 9.11072 7.62579 1.13915 -0.31075 -0.399799 0.0755236
314 1 5.63544 4.68763 8.08206 0.670194 1.18421 0.149397
315 1 6.0801 5.81787 6.4413 0.343006 0.0114389 -1.38506
316 1 1.3291 8.37334 3.165 0.21734 0.602121 0.670266
317 1 3.80507 2.7978 0.502699 0.412583 -0.557745 -1.17195
318 1 0.283976 2.72308 5.316 0.822611 0.169663 -0.0951646
319 1 7.5596 8.25304 6.49653 -0.628874 0.506563 0.0145369
320 1 8.06748 2.62713 2.20718 2.345 0.904797 -0.739087
321 1 4.53607 8.65782 5.92903 0.789436 1.10317 1.31766
322 1 0.353499 0.528238 7.05922 -0.437966 0.466036 -0.536521
323 1 3.25142 5.4107 3.52284 0.236743 0.0335364 0.776546
324 1 5.47812 1.5923 0.422248 -0.586568 0.856376 0.952708
325 1 4.95953 1.92935 5.0112 -0.189909 -0.662981 1.28897
326 1 7.71915 9.37094 7.30795 0.169877 0.259995 0.934592
327 1 0.911756 7.03347 8.76639 0.529574 -0.216098 0.394495
328 1 4.49867 5.43746 2.02406 1.13912 1.70086 -0.170204
329 1 2.04851 3.53223 4.37787 0.0170151 -0.599227 0.783823
330 1 3.24431 2.73758 4.41173 -0.737284 1.91609 1.46411
331 1 4.56314 3.79739 6.15145 0.894549 0.313122 -0.692345
332 1 1.57488 4.32547 7.11035 -0.719497 0.794715 -0.138444
333 1 6.52297 6.45462 0.813091 0.223564 0.220072 -0.0987769
334 1 3.51534 0.0677283 7.68726 1.08638 -0.598072 -0.901769
335 1 3.72495 1.50382 1.05235 0.143466 -0.808093 0.472652
336 1 0.869374 0.41889 6.03737 -0.358242 1.14194 0.637765
337 1 8.63161 3.48904 0.156486 0.977078 0.0571282 0.0540348
338 1 5.87941 1.91866 3.2591 -0.378568 0.571361 -1.15043
339 1 8.26229 8.65492 8.87076 -1.01271 0.0435371 -0.894213
340 1 2.65107 4.9674 2.57668 0.0345581 0.369181 -0.0893986
341 1 1.50471 1.19895 0.289148 -0.399229 0.478704 0.872631
342 1 3.55969 7.71997 8.39562 -0.953479 -0.644741 -0.280036
343 1 2.14521 3.18727 2.58478 0.367472 0.0609731 0.715698
344 1 3.10716 1.01487 4.51637 -0.989344 0.903828 0.517098
345 1 7.00843 8.38505 4.25993 -0.454874 -0.530269 0.254298
346 1 0.604373 5.78339 7.03946 -0.0828694 0.963818 -0.280509
347 1 8.99586 4.16763 7.51964 0.404179 1.03144 -0.251263
348 1 5.11948 2.96683 7.65296 -0.482609 0.720987 0.0741223
349 1 3.94327 0.980095 1.88559 -0.523892 1.12743 -1.66722
350 1 4.9045 3.56126 3.72902 -1.36422 0.108916 -0.648468
351 1 7.25518 9.05085 2.05861 -0.0389486 0.103015 -0.0599513
352 1 5.24622 5.17344 9.10576 -0.28007 -0.144123 -0.471646
353 1 1.26292 1.14782 4.55497 0.409689 -1.03737 -0.827233
354 1 2.60839 0.622973 8.10941 1.17108 -0.131088 0.42399
355 1 8.83058 3.60373 6.4628 0.919788 0.197669 -0.64691
356 1 0.458108 4.22437 0.592328 0.653689 -0.0788136 -0.86726
357 1 5.61423 3.0449 1.0315 1.79255 1.19119 -0.264136
358 1 1.06208 8.90575 8.64705 -0.506158 0.313609 0.505911
359 1 3.42862 3.44261 1.33091 0.138262 0.116152 -0.612119
360 1 5.97484 3.1476 5.41843 1.55959 1.13471 -0.414525
361 1 3.53146 1.90257 2.20951 -0.326618 1.049 -0.20199
362 1 6.68383 3.39301 1.8012 0.0243341 -0.242814 -0.233422
363 1 8.24151 7.18356 1.78372 -0.536932 -0.63072 -0.0924703
364 1 4.26947 1.14223 7.99829 0.0308623 -0.418429 -0.369613
365 1 1.07037 8.97761 1.71563 -0.810645 -0.113798 0.94948
366 1 6.74572 7.85185 5.08706 0.150531 0.547583 -1.62979
367 1 7.77738 1.02366 4.63765 -0.0570114 -0.608991 -0.428292
368 1 2.34329 7.49604 1.49036 1.0414 0.51644 0.818985
369 1 7.74337 2.49978 5.2712 -0.532902 0.894763 -0.829877
370 1 4.80696 1.32248 1.25556 -0.702265 -0.538079 -0.893548
371 1 8.13086 0.987296 2.63085 -0.205062 0.885368 -0.0119671
372 1 5.00086 9.22898 0.217138 -0.612092 -0.735941 0.956644
373 1 7.89389 0.826014 6.77341 -0.755032 -0.874647 -0.534753
374 1 7.02406 6.80422 3.95639 -1.86402 0.179359 -0.842339
375 1 5.13252 5.90608 5.8473 -0.651455 0.31186 0.175701
376 1 2.55753 1.74457 7.77166 0.8888 0.67849 0.574042
377 1 2.8297 5.20888 8.08471 0.577307 0.710446 -0.227348
378 1 8.25076 0.00358641 2.13269 0.57322 -0.571666 -0.0981027
379 1 8.92117 3.7132 5.39588 1.39974 0.484821 -0.303984
380 1 8.75275 7.08422 2.83117 0.14887 -1.18283 0.736102
381 1 1.60595 5.37462 7.02133 0.217747 -0.36371 0.940759
382 1 6.65325 2.07461 1.89003 -0.245484 -0.681858 0.189887
383 1 7.12604 2.68365 1.06294 -0.676474 0.737259 0.67777
384 1 7.1982 8.42493 1.14836 -0.403559 1.35786 -0.0304096
385 1 5.0702 8.90454 1.93066 0.321585 -0.470584 -0.0681802
386 1 0.441031 2.17177 1.1818 -1.69343 0.628394 1.20801
387 1 7.38874 1.78223 2.49446 -0.579677 1.49227 0.147035
388 1 4.83425 6.07663 8.38561 -0.0564384 0.189125 1.00888
389 1 7.36078 4.13256 6.01854 0.504788 -0.155548 -0.704749
390 1 8.4394 4.53179 4.7624 0.952681 0.827461 -0.81142
391 1 4.74582 0.893059 0.169193 1.30025 -0.658765 -0.656854
392 1 2.19555 0.897664 4.04488 0.378246 -2.27815 -0.808138
393 1 4.47683 0.0829378 7.76778 -1.45066 0.523327 1.83962
394 1 9.29704 4.49276 6.17213 0.335497 0.379466 0.824272
395 1 8.09031 5.27199 8.8751 -1.21164 0.330026 0.261806
396 1 2.87057 1.85482 5.10969 -0.283003 0.0551256 1.08155
397 1 6.99614 3.29863 5.14485 1.00167 1.18797 0.509156
398 1 7.39413 6.91019 1.11546 0.564372 0.102674 -0.868123
399 1 1.97352 1.55854 2.23101 0.16809 -0.302386 -0.617529
400 1 6.87995 8.11439 2.16861 1.37931 -0.567923 0.410733
401 1 3.57844 1.75705 5.93296 0.472143 -0.0885558 -0.630711
402 1 7.36476 0.297693 5.30628 -0.0890252 0.282248 -0.0147658
403 1 0.859577 3.00326 1.51072 0.892894 0.280895 -1.05033
404 1 5.06623 7.01398 2.57071 -0.183161 0.0511288 1.99031
405 1 4.01215 1.47837 6.93407 0.934257 -1.1575 -0.0957379
406 1 2.20175 4.2454 5.43014 0.386125 -0.0142034 0.737244
407 1 5.44584 8.31269 0.130364 -0.836221 -1.51363 0.973931
408 1 4.7182 2.56525 8.54328 0.446943 -1.32952 -1.04425
409 1 2.78786 1.46586 2.84467 -0.361443 -0.144223 0.0681799
410 1 0.508971 3.9254 6.89637 1.22767 -0.481444 -0.0722457
411 1 6.62982 8.94669 5.26224 0.201033 -0.684243 0.449444
412 1 5.64566 0.430674 3.7159 -0.543155 -0.290123 -0.235129
413 1 2.06428 7.67583 0.530678 0.0861812 0.736864 -1.44586
414 1 1.35331 7.39762 3.55913 0.355394 0.7004 0.233707
415 1 1.53946 3.8267 1.10254 -0.456822 0.195597 0.348032
416 1 0.06304 8.6645 3.43924 0.773 -0.772001 0.40387
417 1 1.37806 7.85743 4.96907 -0.0782729 0.425764 -0.339775
418 1 3.3485 0.402302 1.01187 0.377404 -0.587338 0.326481
419 1 7.63434 2.39839 3.44853 -0.254664 0.673769 -1.5067
420 1 9.29176 1.85746 4.75543 0.143222 -0.995206 1.19527
421 1 7.87406 8.25045 1.92991 0.528762 -0.540037 -0.424605
422 1 3.09586 2.76459 5.60069 -0.21155 0.36321 -0.153128
423 1 8.08386 7.63732 9.366 0.35886 0.622238 0.0915464
424 1 7.56126 8.45544 5.47506 1.28349 -0.958604 -0.952803
425 1 1.60931 1.8864 5.2252 0.0213485 0.390751 -0.097488
426 1 9.02941 0.820189 8.65031 -0.295747 0.939017 -1.07633
427 1 6.55676 5.78385 5.51136 -0.542874 0.192647 -0.305146
428 1 3.35848 2.78129 6.91191 -0.696531 -0.166277 -0.941855
429 1 4.78925 3.28985 0.52574 0.848882 -1.30637 -0.396272
430 1 2.32769 8.78838 6.18726 -1.55502 0.86868 -0.372747
431 1 9.23731 7.3838 7.6333 0.118031 0.653452 -0.33964
432 1 6.13948 0.675829 7.0544 -0.948306 0.0241317 -0.0186167
433 1 3.64747 2.0511 7.79946 -0.669637 0.0650409 -0.753228
434 1 4.75952 4.45657 2.61743 -0.294865 0.506619 0.522596
435 1 2.04334 0.641726 2.82736 -0.349645 0.552093 -0.757994
436 1 2.06673 3.34662 9.18769 -0.40348 -0.31129 -0.232918
437 1 8.17701 5.0636 7.85132 -0.171973 -0.843833 0.503677
438 1 1.62727 9.00285 0.102366 1.11427 1.35088 -0.404983
439 1 5.26359 6.37709 4.20718 0.669734 -0.182838 0.288371
440 1 0.625929 4.51005 2.70887 0.408388 -0.0836718 1.13261
441 1 9.06281 0.752939 2.32107 -0.970495 0.31274 0.226577
442 1 4.85999 6.84556 0.802657 0.0424568 1.09945 -1.84108
443 1 3.86499 6.74113 8.16939 -0.806044 -0.405914 1.3901
444 1 7.97375 6.5207 4.19043 -0.246441 -1.38665 0.0882508
445 1 4.94554 0.590277 8.54273 0.263077 0.575362 0.111204
446 1 7.36195 5.90115 2.40073 -0.638235 -0.784877 0.14497
447 1 1.02681 7.40509 0.463969 1.26669 -0.036703 0.54637
448 1 4.4735 7.68831 7.81435 1.40853 0.101314 1.02303
449 1 2.3809 1.45598 8.87393 0.694365 -1.21382 1.17182
450 1 2.08373 9.20528 7.52664 -0.598548 0.0238541 0.923587
451 1 6.92206 0.665401 8.70506 -0.305789 -1.45254 0.22076
452 1 5.70118 6.80264 8.28449 0.266669 -0.429146 -1.10227
453 1 5.2627 7.8464 8.45277 -0.406314 -0.598729 -0.315469
454 1 5.73391 6.4896 5.15635 -0.000753577 0.873613 -1.31773
455 1 4.20313 5.43204 6.91231 -0.536068 0.79489 -0.934966
456 1 1.12385 6.3062 2.33799 0.742493 -0.902794 0.523454
457 1 4.82754 4.26709 0.0774416 0.631268 1.1265 0.67865
458 1 8.60254 7.35626 4.43435 0.579106 0.148291 -0.311335
459 1 2.71309 7.15541 2.42541 0.227413 -0.256898 0.735352
460 1 8.4145 2.63563 8.87495 0.807114 0.349462 -0.647811
461 1 8.93687 4.87315 3.31534 -0.965414 0.872184 -0.578389
462 1 0.970941 6.43307 3.45061 -0.397645 -0.599664 -0.0665072
463 1 2.03411 0.482664 9.17033 0.759948 0.00102467 0.0372037
464 1 9.13469 6.09966 0.631628 0.75503 -0.394702 -0.420654
465 1 1.62632 8.11256 2.12169 0.645033 -1.2582 -0.385302
466 1 8.0433 7.83812 1.01133 0.721933 0.371347 -0.0579443
467 1 5.23774 1.10462 2.89726 -1.63345 -0.368926 -0.113539
468 1 6.72701 9.01532 2.9218 0.525818 0.802254 0.325052
469 1 2.52787 2.04446 1.18992 0.24685 0.147281 0.877493
470 1 7.02841 5.39326 4.64516 -1.03932 -1.49864 -0.191128
471 1 2.49934 8.51778 0.242098 -0.359088 0.669564 0.270235
472 1 2.39601 7.04239 6.24446 0.587906 -0.867167 -0.804775
473 1 9.02836 1.24754 6.84639 -0.044564 0.375236 -0.225435
474 1 6.73959 1.70831 8.6055 1.16346 -0.0380334 -0.237551
475 1 4.38605 8.86757 8.73934 0.0689533 0.340915 -0.38172
476 1 2.87329 5.548 4.46966 -0.459442 -0.498106 -0.409475
477 1 8.26389 6.90143 7.83128 -0.769559 -0.733295 -0.655743
478 1 5.71621 9.29988 4.62047 0.442481 -0.786702 0.988913
479 1 7.36987 0.716004 1.99398 -0.544705 0.702093 0.157493
480 1 5.89754 6.75045 6.10852 -0.8824 0.223592 0.809868
481 1 2.63324 4.41329 4.41938 0.465361 1.13376 -0.15042
482 1 4.67945 6.30591 5.04256 -0.447636 -1.04738 0.792851
483 1 1.16785 5.11698 3.41207 -0.591908 -0.607757 -0.252141
484 1 0.11179 3.78999 9.06756 -0.714005 -0.415117 -0.0726554
485 1 6.73501 5.75689 7.21235 0.167827 0.297954 0.676918
486 1 1.66767 4.5533 2.67239 0.424413 0.120015 -0.281165
487 1 0.57279 6.21052 4.41663 0.00680608 0.357819 0.337134
488 1 6.65638 2.34515 5.53166 -0.623336 -0.699238 -0.328556
489 1 6.41001 8.44158 0.516833 -0.594339 -0.175712 -0.807036
490 1 5.44648 5.89423 2.06464 0.87469 0.0729127 -0.15966
491 1 4.61847 5.34951 3.1587 0.778274 0.750396 -0.639199
492 1 1.57555 8.9678 5.49052 -0.401552 -0.335977 -0.849275
493 1 8.01098 4.53728 0.537321 0.413524 -0.0941011 -0.360819
494 1 4.12815 4.09837 3.41399 -0.321881 1.6918 -0.252483
495 1 3.10302 8.19664 1.13588 -0.337362 -1.63329 -0.102682
496 1 2.61671 9.33914 5.37735 -0.627683 0.301771 -0.609269
497 1 6.48925 7.60279 6.83975 0.271479 -1.30758 -0.350439
498 1 2.58501 1.11479 0.542152 0.297713 -0.89627 1.00733
499 1 3.51003 2.9754 2.29804 1.84355 0.599051 0.631296
500 1 6.6964 6.40227 8.11661 1.64965 -0.644377 -0.337366
501 1 5.7502 4.06623 3.82011 0.849018 0.514342 0.783552
502 1 7.9 4.05216 4.0247 0.983719 0.374706 0.0113716
503 1 3.32668 1.04601 7.52292 0.467345 0.583655 0.663642
504 1 3.01394 0.489039 2.35883 0.568328 0.177892 0.159992
505 1 7.60838 3.36076 0.400737 -0.483651 -0.183579 0.072552
506 1 5.56397 5.80353 7.65596 0.265948 -0.0442676 1.54244
507 1 5.44532 7.58421 7.43063 0.146215 1.34132 -0.375324
508 1 0.756156 8.10405 4.06196 -0.69978 -0.863598 0.033944
509 1 3.36427 2.45484 1.39076 -0.176375 0.860203 0.989269
510 1 5.61592 4.8404 0.717505 0.156318 -0.103209 -0.321925
511 1 6.1961 1.73448 7.45424 0.754239 -0.035066 -0.497878
512 1 2.06493 6.44769 1.82324 0.764803 1.21333 -0.283875
513 1 4.79515 7.59189 1.51342 -0.0602666 -1.48197 -0.684773
514 1 8.11641 5.43998 2.98565 0.0811854 -0.295276 -0.506685